 Fermi distribution function


Coordinates of moved atoms (au):
    1      0.00000000      0.00000000      0.00000000
    2      0.00000000      0.00000000      7.55890395

 Total charge:     0.00000000

 Atomic gross charges (e)
 Atom           Charge
    1      -0.00001883
    2       0.00001883

Nr. of electrons (up):      9.00000000
Atom populations (up)
 Atom       Population
    1       1.00001883
    2       7.99998117

l-shell populations (up)
 Atom Sh.   l       Population
    1   1   0       1.00001883
    2   1   0       1.99999992
    2   2   1       5.99998125

Orbital populations (up)
 Atom Sh.   l   m       Population  Label
    1   1   0   0       1.00001883  s
    2   1   0   0       1.99999992  s
    2   2   1  -1       2.00000000  p_y
    2   2   1   0       1.99998125  p_z
    2   2   1   1       2.00000000  p_x

Fermi level:                        -0.2385972885 H           -6.4926 eV
Band energy:                        -4.2751044299 H         -116.3315 eV
TS:                                  0.0000000139 H            0.0000 eV
Band free energy (E-TS):            -4.2751044437 H         -116.3315 eV
Extrapolated E(0K):                 -4.2751044368 H         -116.3315 eV
Input / Output electrons (q):      0.0000000000      9.0000000000

Energy H0:                          -4.2751044299 H         -116.3315 eV
Total Electronic energy:            -4.2751044299 H         -116.3315 eV
Repulsive energy:                    0.0000000000 H            0.0000 eV
Total energy:                       -4.2751044299 H         -116.3315 eV
Extrapolated to 0:                  -4.2751044368 H         -116.3315 eV
Total Mermin free energy:           -4.2751044437 H         -116.3315 eV
Force related energy:               -4.2751044437 H         -116.3315 eV

Non-SCC calculation

Full geometry written in geo_end.{xyz|gen}

Dipole moment:    0.00000000    0.00000000    0.00014235 au
Dipole moment:    0.00000000    0.00000000    0.00036181 Debye

Geometry converged

