 Fermi distribution function


Coordinates of moved atoms (au):
    1      3.75405086      6.23712177     27.45800876
    2      2.90708264      8.00047871     26.76072025
    3      5.75067072      6.12684500     26.89938108
    4      2.70955202      4.59694369     26.73016305
    5      3.61112763      6.22021142     30.11342679
    6      3.61112763      6.22021142     35.97157724

 Total charge:     2.00000000

 Atomic gross charges (e)
 Atom           Charge
    1       0.88519453
    2       0.60860151
    3       0.35205887
    4       0.10768549
    5       0.04632640
    6       0.00013319

Nr. of electrons (up):     20.00000000
Atom populations (up)
 Atom       Population
    1       3.11480547
    2       0.39139849
    3       0.64794113
    4       0.89231451
    5       6.95367360
    6       7.99986681

l-shell populations (up)
 Atom Sh.   l       Population
    1   1   0       1.20527467
    1   2   1       1.90953080
    2   1   0       0.39139849
    3   1   0       0.64794113
    4   1   0       0.89231451
    5   1   0       1.91468239
    5   2   1       5.03899121
    6   1   0       1.99999764
    6   2   1       5.99986917

Orbital populations (up)
 Atom Sh.   l   m       Population  Label
    1   1   0   0       1.20527467  s
    1   2   1  -1       0.60415239  p_y
    1   2   1   0       0.61265651  p_z
    1   2   1   1       0.69272190  p_x
    2   1   0   0       0.39139849  s
    3   1   0   0       0.64794113  s
    4   1   0   0       0.89231451  s
    5   1   0   0       1.91468239  s
    5   2   1  -1       1.73064515  p_y
    5   2   1   0       1.52020421  p_z
    5   2   1   1       1.78814184  p_x
    6   1   0   0       1.99999764  s
    6   2   1  -1       1.99996333  p_y
    6   2   1   0       1.99993392  p_z
    6   2   1   1       1.99997192  p_x

Fermi level:                        -0.3131355765 H           -8.5209 eV
Band energy:                       -10.6848182682 H         -290.7487 eV
TS:                                  0.0000000000 H            0.0000 eV
Band free energy (E-TS):           -10.6848182682 H         -290.7487 eV
Extrapolated E(0K):                -10.6848182682 H         -290.7487 eV
Input / Output electrons (q):      0.0000000000     20.0000000000

Energy H0:                         -10.6848182682 H         -290.7487 eV
Total Electronic energy:           -10.6848182682 H         -290.7487 eV
Repulsive energy:                    0.2161678519 H            5.8822 eV
Total energy:                      -10.4686504162 H         -284.8665 eV
Extrapolated to 0:                 -10.4686504162 H         -284.8665 eV
Total Mermin free energy:          -10.4686504162 H         -284.8665 eV
Force related energy:              -10.4686504162 H         -284.8665 eV

Non-SCC calculation

Full geometry written in geo_end.{xyz|gen}

Geometry converged

