81
Lattice="9.312844978309194 0.0 0.0 0.0 9.312844978309194 0.0 0.0 0.0 9.312844978309194" Properties=species:S:1:pos:R:3:forces:R:3:energies:R:1 energy=71.71319028943991 pbc="T T T"
O        0.00000000       0.00000000       0.11926200      -0.00000000      -0.00000000       8.11183591      -0.04479790
H        0.00000000       0.76323900       8.83579798       0.00000000       5.21893682      -4.05591796       1.35042099
H        0.00000000       8.54960598       8.83579798       0.00000000      -5.21893682      -4.05591796       1.35042099
O        0.00000000       0.00000000       3.22354366      -0.00000000       0.00000000       8.11183591      -0.04479790
H        0.00000000       0.76323900       2.62723466       0.00000000       5.21893682      -4.05591796       1.35042099
H        0.00000000       8.54960598       2.62723466       0.00000000      -5.21893682      -4.05591796       1.35042099
O        0.00000000       0.00000000       6.32782532      -0.00000000       0.00000000       8.11183591      -0.04479790
H        0.00000000       0.76323900       5.73151632       0.00000000       5.21893682      -4.05591796       1.35042099
H        0.00000000       8.54960598       5.73151632       0.00000000      -5.21893682      -4.05591796       1.35042099
O        0.00000000       3.10428166       0.11926200      -0.00000000       0.00000000       8.11183591      -0.04479790
H        0.00000000       3.86752066       8.83579798       0.00000000       5.21893682      -4.05591796       1.35042099
H        0.00000000       2.34104266       8.83579798       0.00000000      -5.21893682      -4.05591796       1.35042099
O        0.00000000       3.10428166       3.22354366      -0.00000000      -0.00000000       8.11183591      -0.04479790
H        0.00000000       3.86752066       2.62723466       0.00000000       5.21893682      -4.05591796       1.35042099
H        0.00000000       2.34104266       2.62723466       0.00000000      -5.21893682      -4.05591796       1.35042099
O        0.00000000       3.10428166       6.32782532      -0.00000000      -0.00000000       8.11183591      -0.04479790
H        0.00000000       3.86752066       5.73151632       0.00000000       5.21893682      -4.05591796       1.35042099
H        0.00000000       2.34104266       5.73151632       0.00000000      -5.21893682      -4.05591796       1.35042099
O        0.00000000       6.20856332       0.11926200      -0.00000000      -0.00000000       8.11183591      -0.04479790
H        0.00000000       6.97180232       8.83579798       0.00000000       5.21893682      -4.05591796       1.35042099
H        0.00000000       5.44532432       8.83579798       0.00000000      -5.21893682      -4.05591796       1.35042099
O        0.00000000       6.20856332       3.22354366      -0.00000000      -0.00000000       8.11183591      -0.04479790
H        0.00000000       6.97180232       2.62723466       0.00000000       5.21893682      -4.05591796       1.35042099
H        0.00000000       5.44532432       2.62723466       0.00000000      -5.21893682      -4.05591796       1.35042099
O        0.00000000       6.20856332       6.32782532      -0.00000000      -0.00000000       8.11183591      -0.04479790
H        0.00000000       6.97180232       5.73151632       0.00000000       5.21893682      -4.05591796       1.35042099
H        0.00000000       5.44532432       5.73151632       0.00000000      -5.21893682      -4.05591796       1.35042099
O        3.10428166       0.00000000       0.11926200      -0.00000000       0.00000000       8.11183591      -0.04479790
H        3.10428166       0.76323900       8.83579798       0.00000000       5.21893682      -4.05591796       1.35042099
H        3.10428166       8.54960598       8.83579798       0.00000000      -5.21893682      -4.05591796       1.35042099
O        3.10428166       0.00000000       3.22354366      -0.00000000      -0.00000000       8.11183591      -0.04479790
H        3.10428166       0.76323900       2.62723466      -0.00000000       5.21893682      -4.05591796       1.35042099
H        3.10428166       8.54960598       2.62723466      -0.00000000      -5.21893682      -4.05591796       1.35042099
O        3.10428166       0.00000000       6.32782532      -0.00000000      -0.00000000       8.11183591      -0.04479790
H        3.10428166       0.76323900       5.73151632       0.00000000       5.21893682      -4.05591796       1.35042099
H        3.10428166       8.54960598       5.73151632       0.00000000      -5.21893682      -4.05591796       1.35042099
O        3.10428166       3.10428166       0.11926200      -0.00000000      -0.00000000       8.11183591      -0.04479790
H        3.10428166       3.86752066       8.83579798      -0.00000000       5.21893682      -4.05591796       1.35042099
H        3.10428166       2.34104266       8.83579798      -0.00000000      -5.21893682      -4.05591796       1.35042099
O        3.10428166       3.10428166       3.22354366      -0.00000000      -0.00000000       8.11183591      -0.04479790
H        3.10428166       3.86752066       2.62723466      -0.00000000       5.21893682      -4.05591796       1.35042099
H        3.10428166       2.34104266       2.62723466       0.00000000      -5.21893682      -4.05591796       1.35042099
O        3.10428166       3.10428166       6.32782532       0.00000000      -0.00000000       8.11183591      -0.04479790
H        3.10428166       3.86752066       5.73151632      -0.00000000       5.21893682      -4.05591796       1.35042099
H        3.10428166       2.34104266       5.73151632       0.00000000      -5.21893682      -4.05591796       1.35042099
O        3.10428166       6.20856332       0.11926200      -0.00000000      -0.00000000       8.11183591      -0.04479790
H        3.10428166       6.97180232       8.83579798       0.00000000       5.21893682      -4.05591796       1.35042099
H        3.10428166       5.44532432       8.83579798       0.00000000      -5.21893682      -4.05591796       1.35042099
O        3.10428166       6.20856332       3.22354366       0.00000000      -0.00000000       8.11183591      -0.04479790
H        3.10428166       6.97180232       2.62723466       0.00000000       5.21893682      -4.05591796       1.35042099
H        3.10428166       5.44532432       2.62723466      -0.00000000      -5.21893682      -4.05591796       1.35042099
O        3.10428166       6.20856332       6.32782532       0.00000000      -0.00000000       8.11183591      -0.04479790
H        3.10428166       6.97180232       5.73151632      -0.00000000       5.21893682      -4.05591796       1.35042099
H        3.10428166       5.44532432       5.73151632       0.00000000      -5.21893682      -4.05591796       1.35042099
O        6.20856332       0.00000000       0.11926200       0.00000000      -0.00000000       8.11183591      -0.04479790
H        6.20856332       0.76323900       8.83579798      -0.00000000       5.21893682      -4.05591796       1.35042099
H        6.20856332       8.54960598       8.83579798      -0.00000000      -5.21893682      -4.05591796       1.35042099
O        6.20856332       0.00000000       3.22354366       0.00000000       0.00000000       8.11183591      -0.04479790
H        6.20856332       0.76323900       2.62723466      -0.00000000       5.21893682      -4.05591796       1.35042099
H        6.20856332       8.54960598       2.62723466      -0.00000000      -5.21893682      -4.05591796       1.35042099
O        6.20856332       0.00000000       6.32782532       0.00000000      -0.00000000       8.11183591      -0.04479790
H        6.20856332       0.76323900       5.73151632      -0.00000000       5.21893682      -4.05591796       1.35042099
H        6.20856332       8.54960598       5.73151632      -0.00000000      -5.21893682      -4.05591796       1.35042099
O        6.20856332       3.10428166       0.11926200       0.00000000      -0.00000000       8.11183591      -0.04479790
H        6.20856332       3.86752066       8.83579798      -0.00000000       5.21893682      -4.05591796       1.35042099
H        6.20856332       2.34104266       8.83579798      -0.00000000      -5.21893682      -4.05591796       1.35042099
O        6.20856332       3.10428166       3.22354366       0.00000000      -0.00000000       8.11183591      -0.04479790
H        6.20856332       3.86752066       2.62723466      -0.00000000       5.21893682      -4.05591796       1.35042099
H        6.20856332       2.34104266       2.62723466       0.00000000      -5.21893682      -4.05591796       1.35042099
O        6.20856332       3.10428166       6.32782532       0.00000000      -0.00000000       8.11183591      -0.04479790
H        6.20856332       3.86752066       5.73151632      -0.00000000       5.21893682      -4.05591796       1.35042099
H        6.20856332       2.34104266       5.73151632      -0.00000000      -5.21893682      -4.05591796       1.35042099
O        6.20856332       6.20856332       0.11926200       0.00000000      -0.00000000       8.11183591      -0.04479790
H        6.20856332       6.97180232       8.83579798      -0.00000000       5.21893682      -4.05591796       1.35042099
H        6.20856332       5.44532432       8.83579798      -0.00000000      -5.21893682      -4.05591796       1.35042099
O        6.20856332       6.20856332       3.22354366       0.00000000      -0.00000000       8.11183591      -0.04479790
H        6.20856332       6.97180232       2.62723466      -0.00000000       5.21893682      -4.05591796       1.35042099
H        6.20856332       5.44532432       2.62723466      -0.00000000      -5.21893682      -4.05591796       1.35042099
O        6.20856332       6.20856332       6.32782532       0.00000000      -0.00000000       8.11183591      -0.04479790
H        6.20856332       6.97180232       5.73151632      -0.00000000       5.21893682      -4.05591796       1.35042099
H        6.20856332       5.44532432       5.73151632      -0.00000000      -5.21893682      -4.05591796       1.35042099
81
Lattice="9.312844978309194 0.0 0.0 0.0 9.312844978309194 0.0 0.0 0.0 9.312844978309194" Properties=species:S:1:pos:R:3:forces:R:3:energies:R:1 energy=66.45772646072909 pbc="T T T"
O        9.31278377       0.00001755       0.14465419      -0.00117270      -0.00532769      -2.96529187       1.66796788
H        9.31283985       1.00357089       8.63554429      -0.00004911      -1.96597130       1.47964272       0.39672869
H        9.31207883       8.31035238       8.63542745       0.00106480       1.96660562       1.48588310       0.39663599
O        0.00008499       0.00006464       3.24878059      -0.00084178       0.00283195      -2.96760423       1.66820367
H        0.00028255       1.00291861       2.42663702      -0.00040250      -1.96699904       1.48656562       0.39658047
H        9.31224502       8.30914307       2.42748913       0.00115957       1.96774355       1.48148215       0.39668116
O        0.00009343       0.00006354       6.35304064       0.00069809       0.00107013      -2.96640585       1.66738307
H        0.00080514       1.00241622       5.53102580      -0.00120025      -1.96661631       1.48392851       0.39669592
H        9.31259537       8.30959265       5.53092231       0.00061329       1.96645629       1.48226906       0.39663217
O        9.31278919       3.10430194       0.14469464      -0.00165895       0.00364401      -2.96666621       1.66865773
H        9.31239101       4.10658801       8.63483345       0.00062588      -1.96692800       1.48623469       0.39664303
H        9.31241309       2.10065271       8.63555376       0.00060932       1.96682016       1.48025646       0.39671603
O        9.31273835       3.10436194       3.24848707       0.00196200      -0.00479671      -2.96558527       1.66633318
H        0.00043033       4.10753290       2.42666400      -0.00088011      -1.96534414       1.47938819       0.39671573
H        0.00046683       2.10237100       2.42622849      -0.00101402       1.96485388       1.48565001       0.39662432
O        9.31270016       3.10419054       6.35314036       0.00074021      -0.00000830      -2.96943828       1.66913837
H        0.00008696       4.10740475       5.53095180      -0.00055185      -1.96790535       1.48502847       0.39662176
H        0.00001197       2.10096473       5.53106735      -0.00040724       1.96861587       1.48486044       0.39662976
O        9.31267532       6.20865460       0.14450472       0.00212511       0.00006723      -2.96812936       1.66747259
H        0.00075290       7.21124714       8.63496399      -0.00146389      -1.96575739       1.48550835       0.39660674
H        0.00016559       5.20529099       8.63594058      -0.00050738       1.96682412       1.48302176       0.39664297
O        0.00011703       6.20866145       3.24876099      -0.00058647       0.00061546      -2.96589269       1.66854059
H        0.00004708       7.21109665       2.42609037       0.00022231      -1.96688119       1.48418681       0.39668914
H        9.31269261       5.20509694       2.42690267       0.00040009       1.96784974       1.48126568       0.39669032
O        0.00003929       6.20858349       6.35296980       0.00146683      -0.00086120      -2.96358938       1.66594666
H        9.31278747       7.21135437       5.53127006       0.00022694      -1.96518650       1.48114202       0.39670304
H        0.00092643       5.20597471       5.53111700      -0.00150553       1.96456783       1.48230844       0.39667981
O        3.10410451       0.00009335       0.14463007       0.00136912       0.00006361      -2.96539756       1.66755059
H        3.10449957       1.00274858       8.63516806      -0.00071597      -1.96757185       1.48412897       0.39665137
H        3.10449517       8.30951668       8.63603900      -0.00073935       1.96717815       1.48176425       0.39668150
O        3.10428609       9.31263475       3.24881658      -0.00030003      -0.00232653      -2.97056385       1.66885898
H        3.10375042       1.00316751       2.42641961       0.00091129      -1.96708966       1.48343800       0.39662209
H        3.10469308       8.31022960       2.42629258      -0.00064792       1.96567359       1.48674173       0.39662413
O        3.10422914       9.31270942       6.35302459       0.00061272      -0.00048180      -2.96215444       1.66839362
H        3.10466727       1.00362950       5.53135612      -0.00075018      -1.96561433       1.48014972       0.39672406
H        3.10416567       8.30978495       5.53114402       0.00021713       1.96717918       1.48191238       0.39675024
O        3.10437593       3.10419669       0.14459357       0.00056830      -0.00092593      -2.96414550       1.66665394
H        3.10453560       4.10733471       8.63562108      -0.00022815      -1.96645962       1.48185358       0.39666115
H        3.10447852       2.10134331       8.63600791      -0.00019754       1.96732567       1.48236580       0.39669471
O        3.10429006       3.10423447       3.24879582       0.00019214      -0.00116066      -2.96295854       1.66714563
H        3.10439052       4.10731800       2.42681268      -0.00008833      -1.96605513       1.48139434       0.39669356
H        3.10426662       2.10127219       2.42725391       0.00012713       1.96594911       1.48173166       0.39671728
O        3.10440624       3.10420805       6.35324542       0.00055929       0.00413016      -2.96795933       1.66943695
H        3.10479495       4.10714085       5.53122887      -0.00056407      -1.96989401       1.48529206       0.39665427
H        3.10430602       2.10088703       5.53052247       0.00012784       1.96574875       1.48235435       0.39668494
O        3.10415152       6.20854176       0.14455815       0.00091589      -0.00093071      -2.96549560       1.66722670
H        3.10466145       7.21133539       8.63507342      -0.00091724      -1.96594771       1.48267491       0.39666609
H        3.10410903       5.20571383       8.63562174       0.00002507       1.96725136       1.48270707       0.39668409
O        3.10415364       6.20845133       3.24880697      -0.00134066       0.00254303      -2.96880996       1.66866817
H        3.10391973       7.21129079       2.42628558       0.00030361      -1.96542963       1.48611160       0.39659260
H        3.10375182       5.20522894       2.42689116       0.00063621       1.96785510       1.48257712       0.39668808
O        3.10428882       6.20857465       6.35320478      -0.00202901      -0.00325975      -2.96467745       1.66811120
H        3.10356316       7.21216419       5.53105027       0.00123003      -1.96657781       1.48124846       0.39667295
H        3.10381901       5.20568050       5.53174792       0.00070545       1.96886613       1.48366908       0.39669932
O        6.20856905       9.31277975       0.14447948       0.00071989      -0.00515334      -2.96651611       1.66793961
H        6.20902418       1.00330399       8.63503989      -0.00088585      -1.96413587       1.48089196       0.39669311
H        6.20843664       8.31019899       8.63546407       0.00019724       1.96686811       1.48578597       0.39663612
O        6.20867582       9.31276220       3.24886463      -0.00043440       0.00000985      -2.96782422       1.66851135
H        6.20812651       1.00284786       2.42639627       0.00107225      -1.96534694       1.48388915       0.39665275
H        6.20898268       8.30997263       2.42651368      -0.00058283       1.96635054       1.48379886       0.39667306
O        6.20862930       0.00021541       6.35304006      -0.00006103       0.00187815      -2.96884229       1.66811338
H        6.20847327       1.00255036       5.53059643       0.00019748      -1.96759143       1.48590129       0.39663282
H        6.20875050       8.30976678       5.53083934      -0.00021661       1.96533043       1.48266147       0.39664529
O        6.20866862       3.10420920       0.14453648       0.00153125      -0.00023101      -2.96680116       1.67049402
H        6.20875415       4.10753329       8.63501784      -0.00010030      -1.96695391       1.48327319       0.39671149
H        6.20936116       2.10070238       8.63502092      -0.00122250       1.96704761       1.48331700       0.39668789
O        6.20856883       3.10441449       3.24878300      -0.00207305      -0.00012699      -2.96375747       1.66729636
H        6.20824658       4.10714810       2.42726393       0.00059348      -1.96877822       1.48181264       0.39674655
H        6.20775138       2.10097874       2.42683330       0.00144624       1.96439447       1.48181389       0.39665198
O        6.20852780       3.10438056       6.35288069      -0.00048662      -0.00385283      -2.96290117       1.66680785
H        6.20776615       4.10761352       5.53121853       0.00132548      -1.96667872       1.47982012       0.39673080
H        6.20903154       2.10148620       5.53133362      -0.00085356       1.96695862       1.48345108       0.39665348
O        6.20853365       6.20874604       0.14455674       0.00040150       0.00403702      -2.96962500       1.66941274
H        6.20879614       7.21102483       8.63460320      -0.00043286      -1.96759779       1.48813286       0.39660139
H        6.20843281       5.20484639       8.63541585       0.00014177       1.96605438       1.48134229       0.39668213
O        6.20881422       6.20860785       3.24886827      -0.00044564      -0.00004301      -2.96527053       1.66855895
H        6.20908393       7.21186961       2.42679580      -0.00048718      -1.96658898       1.48314606       0.39666581
H        6.20822893       5.20521986       2.42725921       0.00107672       1.97015311       1.48244730       0.39669023
O        6.20846517       6.20854313       6.35298530      -0.00013150       0.00144551      -2.96490524       1.66868157
H        6.20869403       7.21171031       5.53090335      -0.00042304      -1.96610055       1.48328099       0.39667467
H        6.20824940       5.20522396       5.53108652       0.00047826       1.96863036       1.48170491       0.39671205
81
Lattice="9.312844978309194 0.0 0.0 0.0 9.312844978309194 0.0 0.0 0.0 9.312844978309194" Properties=species:S:1:pos:R:3:forces:R:3:energies:R:1 energy=53.43733827099221 pbc="T T T"
O        9.31254721       9.31255691       0.13890618      -0.00050839       0.02197547      -2.00170801       1.11050463
H        0.00095973       0.90807789       8.68138633      -0.00140057      -1.38957110       1.00764197       0.43129081
H        9.31095933       8.40905122       8.68266784       0.00151069       1.36969274       0.99413297       0.43595184
O        0.00009991       0.00033675       3.24293382      -0.00141427      -0.00012982      -2.00499282       1.11191375
H        0.00049332       0.90657431       2.47314237      -0.00045617      -1.38586692       1.00566932       0.43315643
H        9.31134253       8.40510117       2.47543148       0.00194729       1.38579092       1.00049518       0.43345239
O        0.00016998       0.00022653       6.34724522       0.00285121      -0.01249096      -2.01441073       1.11291884
H        0.00292142       0.90498325       5.57724543      -0.00322986      -1.37996289       1.00207361       0.43432813
H        9.31239654       8.40599710       5.57639611       0.00069024       1.39300796       1.01185278       0.43172062
O        9.31280902       3.10457571       0.13900106      -0.00470108      -0.01458081      -2.02432457       1.11567908
H        9.31075642       4.00834665       8.68030353       0.00234752      -1.38238183       1.00869662       0.43400326
H        9.31175698       2.19616974       8.68129376       0.00106713       1.39793096       1.01469058       0.43111925
O        9.31262889       3.10419345       3.24202390       0.00206171       0.01429380      -1.99246365       1.10807902
H        0.00112178       4.01134754       2.47238027      -0.00144781      -1.38112328       1.00028579       0.43266350
H        9.31276906       2.20014064       2.47279750      -0.00023807       1.36760935       0.99126627       0.43552107
O        9.31249287       3.10398648       6.34727864       0.00142841       0.00174061      -2.00582928       1.11139896
H        0.00035365       4.01039180       5.57749297      -0.00111288      -1.38521028       1.00433528       0.43308127
H        0.00003130       2.19795429       5.57782598      -0.00090961       1.38250421       1.00261932       0.43360652
O        9.31239546       6.20899270       0.13861169       0.00422517      -0.01252107      -2.00405512       1.11029540
H        0.00220480       7.11345471       8.68172051      -0.00290305      -1.37640687       0.99962951       0.43456230
H        0.00036327       5.30125370       8.68232764      -0.00069302       1.38605424       1.00559880       0.43233919
O        0.00028715       6.20902589       3.24290552      -0.00265846      -0.00556868      -2.01476929       1.11330779
H        9.31247242       7.11366222       2.47138759       0.00100719      -1.38406270       1.00650969       0.43339521
H        9.31181564       5.30195600       2.47314921       0.00143511       1.38863851       1.00695463       0.43265370
O        0.00024548       6.20845494       6.34686887       0.00246184      -0.00304999      -1.98002649       1.10563197
H        0.00076089       7.11418290       5.57867071      -0.00046872      -1.36724248       0.98848927       0.43494566
H        0.00167922       5.30255906       5.57810423      -0.00166858       1.37093711       0.99163645       0.43431599
O        3.10385399       0.00030530       0.13913278       0.00218700       0.00321571      -1.99828342       1.10982411
H        3.10420838       0.90533753       8.68069856      -0.00044034      -1.38056383       1.00383824       0.43315555
H        3.10512239       8.40630519       8.68418843      -0.00160169       1.37674844       0.99530199       0.43429390
O        3.10413484       9.31229427       3.24306429       0.00039185       0.01041633      -2.02602559       1.11656503
H        3.10331217       0.90733263       2.47234184       0.00107293      -1.39888485       1.01612355       0.43133593
H        3.10536304       8.40659464       2.47293805      -0.00150640       1.38984244       1.00969240       0.43345014
O        3.10409352       9.31264549       6.34709765       0.00248521       0.01298890      -2.01106818       1.11355749
H        3.10531707       0.90828375       5.57779763      -0.00152156      -1.39408130       1.00884635       0.43189358
H        3.10488728       8.40745261       5.57734542      -0.00075662       1.37970477       1.00151325       0.43432842
O        3.10460465       3.10401789       0.13902947      -0.00017761       0.00532978      -2.00115842       1.11076368
H        3.10473707       4.01071976       8.68229200       0.00008397      -1.38549055       1.00405142       0.43294956
H        3.10413763       2.19759184       8.68339490       0.00060068       1.37942628       0.99841568       0.43409491
O        3.10442555       3.10436549       3.24287655      -0.00101182       0.00488744      -2.02745546       1.11779660
H        3.10439799       4.01200946       2.47232043       0.00028863      -1.39966423       1.01632985       0.43168555
H        3.10364001       2.19697421       2.47359406       0.00109316       1.39385800       1.01061865       0.43285981
O        3.10467409       3.10382821       6.34752722       0.00105252       0.00069904      -2.01106479       1.11246498
H        3.10542563       4.00958529       5.57750536      -0.00061286      -1.38418333       1.00563773       0.43335029
H        3.10457497       2.19782320       5.57688109       0.00002782       1.38464351       1.00473235       0.43302697
O        3.10391322       6.20848176       0.13897681      -0.00003125       0.01530194      -2.00861743       1.11169972
H        3.10472923       7.11499539       8.68012503      -0.00116218      -1.39054110       1.01150581       0.43160889
H        3.10289949       5.30335504       8.68309838       0.00108183       1.37626126       0.99655519       0.43500432
O        3.10393274       6.20857521       3.24299475      -0.00161048      -0.00473589      -2.00274113       1.11114348
H        3.10438193       7.11399741       2.47339265      -0.00076180      -1.37890193       1.00027441       0.43408776
H        3.10250995       5.30173372       2.47324749       0.00160785       1.38340028       1.00262439       0.43296547
O        3.10428602       6.20840788       6.34758674      -0.00322833       0.01552241      -2.01755072       1.11421771
H        3.10295118       7.11645236       5.57703043       0.00147784      -1.39710793       1.01472690       0.43120281
H        3.10278240       5.30304933       5.57843961       0.00159092       1.38191640       1.00308199       0.43440230
O        6.20833666       9.31251021       0.13840210       0.00098208       0.01568759      -2.01468650       1.11371778
H        6.20850905       0.90708690       8.67978406      -0.00045487      -1.39256765       1.01340513       0.43125507
H        6.20881465       8.40739568       8.68218764      -0.00058046       1.37907808       1.00091290       0.43473176
O        6.20880736       9.31261397       3.24300546      -0.00055725       0.01222486      -2.00833321       1.11184608
H        6.20773914       0.90635186       2.47196694       0.00142503      -1.38725108       1.00950810       0.43205021
H        6.20947950       8.40763766       2.47343430      -0.00093832       1.37631541       0.99857046       0.43458707
O        6.20876683       0.00066553       6.34709568       0.00056401      -0.01868908      -2.01250711       1.11276339
H        6.20905071       0.90419263       5.57674638      -0.00050532      -1.37823262       1.00150076       0.43496400
H        6.20888511       8.40511849       5.57674409      -0.00010423       1.39325297       1.01093898       0.43123136
O        6.20898929       3.10411392       0.13871289       0.00202258      -0.00128772      -2.04992176       1.12336028
H        6.20909656       4.01211684       8.68077870      -0.00006622      -1.40807711       1.02422141       0.43128980
H        6.21020525       2.19582383       8.68086559      -0.00138846       1.40825990       1.02484974       0.43111894
O        6.20879639       3.10476111       3.24288265      -0.00195393      -0.01505636      -1.99473157       1.10879014
H        6.20847970       4.00953482       2.47432666       0.00046386      -1.37163833       0.99137712       0.43543855
H        6.20777298       2.19747554       2.47318025       0.00135778       1.38181195       1.00282204       0.43245965
O        6.20827298       3.10410280       6.34673696      -0.00028210       0.01821569      -1.98823398       1.10797333
H        6.20657938       4.01189844       5.57690059       0.00201446      -1.38301006       1.00165475       0.43212103
H        6.20987268       2.19952382       5.57912395      -0.00200061       1.36738083       0.98842041       0.43616766
O        6.20852680       6.20888940       0.13895333       0.00037960      -0.00546213      -2.03182062       1.11774845
H        6.20849160       7.11428157       8.68037652      -0.00000532      -1.39383781       1.01587114       0.43268070
H        6.20873860       5.30088128       8.68151887      -0.00032586       1.39821783       1.01548917       0.43163109
O        6.20928293       6.20864511       3.24320496      -0.00051051       0.01247534      -2.01432029       1.11383851
H        6.20981947       7.11612671       2.47256579      -0.00067285      -1.39483503       1.01321679       0.43159136
H        6.20808428       5.30258008       2.47450358       0.00154680       1.38582496       1.00231400       0.43417727
O        6.20827215       6.20828921       6.34703623      -0.00018953       0.00227624      -2.03899187       1.12082076