    2
Geometry Step: 0
   Ar      0.00000000      0.00000000      0.00000000      7.99973326
    O      0.00000000      0.00000000      4.00000000      6.00026674
