    2
Geometry Step: 0
   Ar      0.00000000      0.00000000      0.00000000      7.99992472
    C      0.00000000      0.00000000      4.00000000      4.00007528
