    2
Geometry Step: 0
    H      0.00000000      0.00000000      0.00000000      1.00001883
   Ar      0.00000000      0.00000000      4.00000000      7.99998117
