  301
Geometry Step: 0
    H     -2.44221074      4.78450884      0.52840052      1.14666591
    H     -2.97488192      9.11082283      0.60523285      1.17173919
    H      9.19565075      6.47157353      0.61306177      1.17194374
    H      1.42634489      6.49069388      0.62903413      1.17412225
    H      0.95315918      2.29045351      0.62908098      1.17613438
    H     -6.34522380     11.55713598      0.63333056      1.17128486
    H      5.29903597     13.24901027      0.63510763      1.17170705
    H      1.48428257     11.55354913      0.63615827      1.17165739
    H      8.76715091      2.31352575      0.63719874      1.17243436
    H      4.86819402      9.10286068      0.63734065      1.17218567
    H      5.38284896      4.77747195      0.63908301      1.17196999
    H     -2.52270381     13.25664643      0.63914147      1.17256334
    H     -0.60547429      7.24934578      1.20401603      0.73945170
    H     10.41001399      3.66668057      1.23613192      0.73923573
    H      9.63238448      9.44645941      1.23954885      0.73941207
    H      1.83090893      9.43539326      1.24803848      0.73944504
    H      3.28918654      0.46836799      1.24990092      0.73932644
    H      7.19684301      7.23517331      1.25105612      0.73940904
    H      6.51921865     10.45210370      1.25225380      0.73937738
    H     -1.30627024     10.45345561      1.25232988      0.73945688
    H     13.55230469      2.67322005      1.25622210      0.73938112
    H     11.12315714      0.46185796      1.25786509      0.73939260
    H      5.73248046      2.66352961      1.25851575      0.73942182
    H      2.61222631      3.67035776      1.25886620      0.73940837
    N     -1.47486492      7.01526751      1.73300108      5.87523342
   Si     -1.66292570      5.23648779      1.74541900      2.90962276
    N     -0.02820078      4.52681171      1.75942940      5.94981625
    N     10.66176852      4.53164615      1.76285590      5.87097202
    N     10.26030424      8.80466771      1.77358751      5.87054231
    N      2.45525233      8.79817700      1.79113827      5.87084702
    N     14.18009674      2.03180350      1.79124174      5.87017751
    N      2.42552569      0.24619303      1.79205145      5.86987240
    N     -1.06589959     11.31268522      1.79434227      5.87078311
    N      6.75784118     11.31183815      1.79497227      5.87086156
    N     10.25516157      0.24372298      1.79524365      5.87136202
    N      6.33524137      7.01073286      1.79598450      5.87051501
    N      2.84793438      4.53252386      1.79836505      5.87050100
    N      6.35851415      2.02520934      1.79888828      5.87025488
    N      7.78729630      4.52254107      1.84182334      5.95081339
   Si     -3.75424769      9.53580414      1.84289088      2.90625856
    N     -3.94528729     11.30503608      1.84469002      5.95079221
   Si      9.22038308      5.57695050      1.84593654      2.90559967
   Si      0.16811995      2.75751340      1.84946487      2.90439570
   Si      1.40780479      5.58024884      1.84985960      2.90446513
    N      3.87965810     11.30029096      1.85497724      5.95114375
   Si     -5.57531599     12.01884789      1.86339609      2.90580989
   Si      6.15819996      5.23929148      1.86586745      2.90594399
   Si      7.98266041      2.75330485      1.86705080      2.90528040
   Si      5.31456134     12.35313923      1.86712254      2.90588025
   Si      4.07716384      9.53155318      1.86736646      2.90564402
   Si     -2.50824591     12.35550166      1.86763562      2.90538991
   Si      2.25023506     12.01651256      1.86849101      2.90582465
    N     -0.03259278      9.03828434      3.18777853      6.00339491
    N     11.70473610      2.27438807      3.20450787      6.00271026
    N      7.78637697      9.04093105      3.20538927      6.00257063
    N      3.88083045      2.26872841      3.21832973      6.00294685
    N     -2.50874052      4.76647661      3.24471814      5.96535896
   Si     -1.45795184      7.96360564      3.25593249      2.70735550
   Si     11.49862046      4.04592208      3.26564219      2.70918850
   Si      9.42553794      8.34279084      3.28506119      2.70833686
   Si      1.60662853      8.33953875      3.29593941      2.70804937
    N     -2.89855945      9.01220474      3.29605733      5.95545078
   Si     -0.24667523     10.80674547      3.30007245      2.70784151
   Si      2.45274684      1.20316608      3.30061218      2.70831871
   Si     13.34165495      1.57175532      3.30066189      2.70806153
   Si     10.28091347      1.20350522      3.30316450      2.70806064
   Si      7.57252427     10.80928568      3.30390514      2.70821542
   Si      6.36397288      7.96908959      3.30398837      2.70803217
    N      9.24083271      6.57203929      3.30473170      5.95488734
   Si      3.66764524      4.03738532      3.30666091      2.70824141
   Si      5.51906230      1.57101094      3.30890906      2.70828420
    N      1.41254879      6.56846921      3.31585895      5.95486842
    N      1.02322745      2.26633784      3.31667686      5.95526173
    N     -6.44017794     11.53528477      3.32533727      5.95548461
    N      8.83564887      2.24255731      3.32654834      5.95490377
    N      5.33448156     13.34502725      3.32745304      5.95488877
    N      1.37772556     11.53817454      3.32787797      5.95483239
    N      4.92596642      9.01805439      3.32802375      5.95541638
    N      5.29639090      4.75724776      3.32923763      5.95597562
    N     -2.48621957     13.34425274      3.32989877      5.95510713
   Si     -1.66390545      5.22860063      4.73946769      2.69561532
    N     -1.42745320      6.99693501      4.74265098      5.96560989
    N     10.64641496      4.51580567      4.75137203      5.96810763
    N     10.25701903      8.85859286      4.76462218      5.96802189
   Si     -3.72707668      9.52898306      4.77510902      2.69485622
    N     -0.02768053      4.52902764      4.77784923      6.01120230
    N      2.43711862      8.85335481      4.77859510      5.96811459
   Si      9.22377049      5.59358550      4.77918065      2.69481292
    N      2.47652368      0.22657384      4.78136312      5.96756625
    N     14.17388441      2.08131319      4.78175115      5.96712518
    N     -1.10678300     11.26475742      4.78363886      5.96816358
    N     10.31387210      0.22654282      4.78427142      5.96866411
    N      6.39581264      6.99417649      4.78542356      5.96728469
    N      6.71341223     11.27052400      4.78603847      5.96797693
    N      2.81217927      4.50650264      4.78732754      5.96708210
    N      6.35061447      2.08646128      4.78885367      5.96767407
   Si      1.39791831      5.59437198      4.79364304      2.69497692
   Si      0.18406452      2.76245260      4.79413220      2.69529150
    N     -3.93926858     11.29820487      4.79495763      6.01125422
   Si     -5.57647358     12.00039372      4.79732750      2.69490874
    N      7.79834297      4.52561367      4.79910272      6.01110508
   Si      4.08927144      9.53003568      4.80019875      2.69499334
   Si      2.24149564     12.00288034      4.80063761      2.69515380
   Si      5.30420332     12.36538064      4.80109139      2.69503505
   Si      6.15992359      5.22538815      4.80148253      2.69496100
   Si      8.00437231      2.75676569      4.80149418      2.69517162
   Si     -2.51258396     12.36417456      4.80186085      2.69520908
    N      3.87773895     11.29843893      4.80532715      6.01148500
    N     -2.52726284      4.76889299      6.21950488      5.97099747
   Si     -1.44742117      7.96342110      6.22942302      2.69297715
   Si     11.48706636      4.04007247      6.23445714      2.69432145
    N     -2.89581953      8.99903346      6.24252138      5.96763437
    N      9.26169114      6.57951889      6.24652276      5.96904953
   Si      9.43205930      8.35235405      6.24689605      2.69385374
   Si      1.61190673      8.34942752      6.26088307      2.69400068
    N      1.01944266      2.23699266      6.26136265      5.96860608
   Si     13.34397313      1.57858857      6.26159665      2.69375876
    N      1.43630299      6.57787755      6.26192004      5.96786206
   Si      2.46317317      1.19519244      6.26229140      2.69381801
   Si     -0.25231649     10.80593012      6.26343063      2.69370312
   Si      6.37132741      7.96498554      6.26480992      2.69367311
   Si      7.56739423     10.80724208      6.26527033      2.69374537
   Si     10.28694159      1.19535598      6.26529272      2.69384381
    N     -6.44971462     11.54377632      6.26617285      5.96906899
   Si      3.66291748      4.03679840      6.26628000      2.69366510
    N      4.92180503      8.99957718      6.26710333      5.96839131
    N      5.34744511     13.35057512      6.26805571      5.96820343
    N      8.83671067      2.22833219      6.26831255      5.96812950
   Si      5.52363256      1.57928252      6.26832103      2.69377199
    N     -2.46671329     13.34999136      6.26847070      5.96816130
    N      1.36573988     11.55019847      6.26852899      5.96844025
    N      5.28779232      4.76596992      6.26976038      5.96947007
    N     -0.02906761      9.03957412      6.27253354      6.01081366
    N     11.70423486      2.27316855      6.27649288      6.01088815
    N      7.79013812      9.04090719      6.28178123      6.01086816
    N      3.88242369      2.26964939      6.28670221      6.01082194
    N     -0.02420789      4.52658003      7.68487343      6.01089227
    N     -3.93693072     11.29866982      7.68952827      6.01142956
    N      7.79666077      4.52736410      7.69187361      6.01144132
    N      3.88080330     11.29864449      7.69664856      6.01132337
   Si     -1.66341955      5.21681834      7.70325503      2.69448737
    N     -1.47949874      6.98864806      7.70780945      5.96356809
    N     10.65790457      4.55831866      7.71177712      5.96444630
   Si     -3.71365581      9.53349960      7.72047665      2.69414371
   Si      9.21353262      5.60262329      7.72179487      2.69435512
    N     10.29474308      8.81307286      7.72277016      5.96476041
    N      2.47406704      8.81109319      7.73738971      5.96428386
   Si      0.19631404      2.76270815      7.73754997      2.69433077
    N     14.20854743      2.03484546      7.73757105      5.96387329
   Si      1.39163053      5.60142691      7.73774631      2.69418928
    N      2.43001619      0.21794907      7.73828088      5.96443893
   Si     -5.57636348     11.98872335      7.73993989      2.69432048
    N     -1.08100353     11.32121529      7.74068462      5.96455031
    N     10.25576209      0.21823637      7.74142118      5.96455393
    N      6.73938046     11.32570049      7.74142997      5.96440407
    N      2.83590941      4.55795675      7.74151424      5.96370505
    N      6.33854431      6.98947481      7.74173696      5.96415696
   Si      4.10307577      9.53409704      7.74230652      2.69442973
   Si      2.24228502     11.98997335      7.74291386      2.69430981
   Si      5.29771225     12.37331019      7.74294926      2.69435620
   Si      8.01583638      2.76235190      7.74319115      2.69433139
   Si     -2.51977275     12.37260935      7.74327777      2.69455101
    N      6.38661785      2.03948949      7.74389959      5.96432894
   Si      6.15731165      5.21660579      7.74415081      2.69441988
   Si     -1.45340589      7.96651257      9.17964734      2.69528017
   Si     11.49004809      4.04262430      9.18150550      2.69575621
    N     -2.48219835      4.68444833      9.18235386      5.97615971
   Si      9.43386452      8.34320575      9.19104864      2.69550692
    N     -2.84358612      9.08828819      9.19575744      5.97500878
    N      9.15941987      6.57835451      9.19805938      5.97549635
   Si     13.34454957      1.56961327      9.20487842      2.69562506
   Si      1.61451789      8.34102590      9.20554021      2.69563129
   Si      2.45748790      1.19796703      9.20643539      2.69567614
   Si     -0.24232477     10.81130749      9.20736871      2.69541054
   Si      7.57712401     10.81373773      9.20859001      2.69546480
   Si      3.67089301      4.04242145      9.20880163      2.69557468
   Si      6.36511469      7.97058663      9.20897848      2.69551551
   Si     10.27653247      1.19875336      9.20920122      2.69549520
   Si      5.52548456      1.56974014      9.21163419      2.69562050
    N      1.06779579      2.31894767      9.21280926      5.97507931
    N      1.33973569      6.57662128      9.21369058      5.97523310
    N     -6.39534361     11.45715436      9.21618886      5.97501355
    N     -0.02759070      9.03957645      9.21655895      6.01250965
    N      4.97560550      9.09242122      9.21777095      5.97483708
    N     11.70319500      2.27130357      9.21791746      6.01231910
    N      1.42244712     11.45769657      9.21840258      5.97469407
    N      5.24537370     13.34889670      9.21846229      5.97530913
    N      8.88660241      2.31989122      9.21906197      5.97508002
    N     -2.56960891     13.34879143      9.21914975      5.97481643
    N      5.33873057      4.68159415      9.21928047      5.97528817
    N      7.79200080      9.04217051      9.22236091      6.01214743
    N      3.88386570      2.27035969      9.22679775      6.01265676
    N     -1.56513350      6.98353456     10.64838108      5.95745795
    N     10.69566197      4.63364892     10.65099729      5.95762211
    N     10.34237644      8.73728833     10.65884756      5.95749873
   Si     -1.66651166      5.20856760     10.67290147      2.70812795
    N     14.25308395      1.96078984     10.67395107      5.95743098
    N      2.52398300      8.73225784     10.67448765      5.95748886
    N      2.34346092      0.21559390     10.67609712      5.95796543
    N     -1.03627081     11.40027845     10.67685678      5.95757984
    N      2.87794148      4.63334370     10.67732936      5.95733446
    N     10.15949941      0.21516362     10.67763518      5.95783705
    N      6.78440094     11.40506396     10.67769910      5.95733179
    N      6.25172552      6.98781183     10.67835310      5.95739957
    N      6.43393452      1.96044958     10.68102431      5.95723656
   Si     -3.70637233      9.53289808     10.68557541      2.70768188
   Si      9.20845425      5.60762793     10.68650358      2.70783609
   Si      0.20235137      2.76110781     10.70085025      2.70810235
   Si      1.38870518      5.60489044     10.70086994      2.70802396
   Si     -5.57681444     11.98332174     10.70373774      2.70796206
   Si      4.11070471      9.53429154     10.70660719      2.70797688
   Si     -2.52154384     12.37721798     10.70673016      2.70804319
   Si      2.23961967     11.98322582     10.70696170      2.70785631
   Si      5.29605174     12.37811427     10.70708534      2.70792103
   Si      8.02076029      2.76320814     10.70742084      2.70800450
   Si      6.15277655      5.21248886     10.70769904      2.70800066
    N     -0.02508351      4.52535541     10.74258498      5.99559322
    N     -3.93489556     11.29700550     10.75080302      5.99573724
    N      7.79514212      4.52815285     10.75381779      5.99557672
    N      3.88199888     11.29858087     10.76092039      5.99551657
    N     11.69999779      2.26835779     12.00295635      5.98673432
    N     -0.02572537      9.03688292     12.00398569      5.98702806
    N      7.79377333      9.04426926     12.01043641      5.98707661
    N      3.88386868      2.27062852     12.01494402      5.98749258
   Si     11.51636381      4.02443289     12.08775652      2.74409291
   Si     -1.45202668      7.99548704     12.08854341      2.74367328
   Si      9.40795440      8.32850388     12.09654960      2.74397911
   Si     13.31375744      1.55447403     12.10994022      2.74389555
   Si      1.58626745      8.32233268     12.11040829      2.74419820
   Si     -0.21327394     10.79164275     12.11264361      2.74385958
   Si      2.45615032      1.23266696     12.11265124      2.74422951
   Si     10.27389900      1.23173509     12.11411944      2.74392460
   Si      6.36756916      8.00499844     12.11434975      2.74384066
   Si      7.60817325     10.79900079     12.11441849      2.74395680
   Si      3.69912472      4.02603554     12.11536613      2.74371775
   Si      5.49594731      1.55255633     12.11736291      2.74391534
    N     -2.47809726      4.71591837     12.19014141      5.88415851
    N     -2.87431183      9.07076604     12.20137777      5.88304574
    N      9.18922507      6.55768203     12.20427273      5.88316148
    N      1.36815697      6.55129858     12.22067712      5.88369994
    N      1.03274973      2.30897758     12.22122426      5.88263362
    N     -6.38714003     11.49473744     12.22385026      5.88341470
    N      1.42771224     11.49226107     12.22576352      5.88323811
    N      5.27739987     13.32713280     12.22582493      5.88305411
    N      4.94217174      9.07848280     12.22592484      5.88311325
    N     -2.54403875     13.32450054     12.22679469      5.88290484
    N      5.34237535      4.72124314     12.22684630      5.88268191
    N      8.85047345      2.30738494     12.22728292      5.88331599
    H     -1.87321219      4.00144028     12.67131096      0.73729419
    H     -2.55689777      9.94938189     12.68665003      0.73728982
    H      8.26860247      6.39213600     12.68670568      0.73740833
    H      1.35198231      3.19037592     12.70116464      0.73724249
    H      0.44626624      6.38598247     12.70163593      0.73728151
    H     -3.46686686     13.16116049     12.70660728      0.73729623
    H     -5.78382360     10.77939526     12.70719130      0.73729492
    H      9.17120314      3.18836180     12.70745125      0.73732837
    H      5.26054688      9.95917958     12.70783072      0.73731177
    H      4.35593005     13.16379035     12.70821359      0.73728975
    H      2.03152938     10.77793519     12.70972923      0.73731483
    H      5.94542137      4.00569349     12.70996220      0.73726797
    H     -1.94898451      6.17562584     13.46783724      0.75226297
    H     10.19899754      5.36778554     13.47259303      0.75225782
    H     -4.40703680      8.80531931     13.47619694      0.75218387
    H     -0.50814653      2.05333391     13.49062089      0.75224107
    H     -1.55608678     12.11312295     13.49328944      0.75227479
    H      3.40208396      8.81513613     13.49472735      0.75223028
    H      2.36006007      5.35346844     13.49545251      0.75225759
    H      1.97517998     12.95390993     13.49673175      0.75227400
    H      6.27096480     12.12518296     13.49697103      0.75219906
    H     -5.85078876     12.95760798     13.49719721      0.75135263
    H      5.88730110      6.18396610     13.49749726      0.75229922
    H      7.31380889      2.04401336     13.50000581      0.75223710
    N     -1.30804597      6.99645246     13.56835396      5.79994470
    N     10.58543241      4.40052358     13.57029045      5.79968791
    N     10.20165863      8.95355771     13.57592817      5.79971017
    N     14.09868383      2.18962363     13.59005049      5.80078183
    N      2.37034483      8.95450429     13.59197491      5.79916734
    N     -1.15189286     11.15346212     13.59429353      5.80001805
    N      2.60454614      0.23905112     13.59580778      5.81298673
    N     10.42713397      0.23788233     13.59640590      5.79935737
    N      2.76071129      4.39226581     13.59656510      5.79987732
    N      6.67129483     11.16383820     13.59666289      5.80109964
    N      6.51998044      7.01128119     13.59701704      5.80048935
    N      6.28226769      2.18321892     13.59825652      5.79923150
    H     11.24135490      4.43015369     14.37472907      0.75223994
    H     -1.66331307      7.54416252     14.37558200      0.75220144
    H      9.90086945      8.37357972     14.38270091      0.75226695
    H     13.80518773      1.60621626     14.39741242      0.75212913
    H      2.07263066      8.37214241     14.39822021      0.75222928
    H     -0.49659100     11.19847166     14.39892489      0.75222927
    H      2.24355541      0.78779689     14.40007401      0.74634253
    H      6.15524589      7.55814528     14.40111978      0.75227247
    H      7.32640218     11.20570485     14.40137092      0.75182787
    H     10.06424573      0.78432390     14.40151317      0.75221922
    H      3.41458896      4.43463610     14.40246872      0.75220268
    H      5.98603512      1.60089964     14.40500089      0.75222978
    C      0.00000000      0.00000000     16.40500089      2.38591316
    F     -0.16105658      1.32922293     16.52721651      7.40358560
    F     -1.14567122     -0.55236482     15.96976450      7.40218483
    F      0.32302659     -0.52268918     17.60074884      7.40379943
    F      0.98315377     -0.25330620     15.52416038      7.39558084
  301
Geometry Step: 1
    H     -2.44221074      4.78450884      0.52840052      1.14666615
    H     -2.97488192      9.11082283      0.60523285      1.17173934
    H      9.19565075      6.47157353      0.61306177      1.17194393
    H      1.42634489      6.49069388      0.62903413      1.17412240
    H      0.95315918      2.29045351      0.62908098      1.17613441
    H     -6.34522380     11.55713598      0.63333056      1.17128494
    H      5.29903597     13.24901027      0.63510763      1.17170171
    H      1.48428257     11.55354913      0.63615827      1.17165760
    H      8.76715091      2.31352575      0.63719874      1.17242899
    H      4.86819402      9.10286068      0.63734065      1.17218572
    H      5.38284896      4.77747195      0.63908301      1.17196483
    H     -2.52270381     13.25664643      0.63914147      1.17255788
    H     -0.60547429      7.24934578      1.20401603      0.73945168
    H     10.41001399      3.66668057      1.23613192      0.73923571
    H      9.63238448      9.44645941      1.23954885      0.73941205
    H      1.83090893      9.43539326      1.24803848      0.73944502
    H      3.28918654      0.46836799      1.24990092      0.73932642
    H      7.19684301      7.23517331      1.25105612      0.73940897
    H      6.51921865     10.45210370      1.25225380      0.73937731
    H     -1.30627024     10.45345561      1.25232988      0.73945680
    H     13.55230469      2.67322005      1.25622210      0.73938109
    H     11.12315714      0.46185796      1.25786509      0.73939258
    H      5.73248046      2.66352961      1.25851575      0.73942191
    H      2.61222631      3.67035776      1.25886620      0.73940835
    N     -1.47486492      7.01526751      1.73300108      5.87523108
   Si     -1.66292570      5.23648779      1.74541900      2.90962286
    N     -0.02820078      4.52681171      1.75942940      5.94981621
    N     10.66176852      4.53164615      1.76285590      5.87096961
    N     10.26030424      8.80466771      1.77358751      5.87054021
    N      2.45525233      8.79817700      1.79113827      5.87084480
    N     14.18009674      2.03180350      1.79124174      5.87017573
    N      2.42552569      0.24619303      1.79205145      5.86987029
    N     -1.06589959     11.31268522      1.79434227      5.87078062
    N      6.75784118     11.31183815      1.79497227      5.87085902
    N     10.25516157      0.24372298      1.79524365      5.87136019
    N      6.33524137      7.01073286      1.79598450      5.87051240
    N      2.84793438      4.53252386      1.79836505      5.87049910
    N      6.35851415      2.02520934      1.79888828      5.87025413
    N      7.78729630      4.52254107      1.84182334      5.95081340
   Si     -3.75424769      9.53580414      1.84289088      2.90625858
    N     -3.94528729     11.30503608      1.84469002      5.95079222
   Si      9.22038308      5.57695050      1.84593654      2.90559969
   Si      0.16811995      2.75751340      1.84946487      2.90439562
   Si      1.40780479      5.58024884      1.84985960      2.90446516
    N      3.87965810     11.30029096      1.85497724      5.95114371
   Si     -5.57531599     12.01884789      1.86339609      2.90580975
   Si      6.15819996      5.23929148      1.86586745      2.90593967
   Si      7.98266041      2.75330485      1.86705080      2.90527577
   Si      5.31456134     12.35313923      1.86712254      2.90587577
   Si      4.07716384      9.53155318      1.86736646      2.90564391
   Si     -2.50824591     12.35550166      1.86763562      2.90538523
   Si      2.25023506     12.01651256      1.86849101      2.90582462
    N     -0.03259278      9.03828434      3.18777853      6.00339477
    N     11.70473610      2.27438807      3.20450787      6.00271110
    N      7.78637697      9.04093105      3.20538927      6.00257025
    N      3.88083045      2.26872841      3.21832973      6.00294721
    N     -2.50874052      4.76647661      3.24471814      5.96536028
   Si     -1.45795184      7.96360564      3.25593249      2.70735023
   Si     11.49862046      4.04592208      3.26564219      2.70918295
   Si      9.42553794      8.34279084      3.28506119      2.70833206
   Si      1.60662853      8.33953875      3.29593941      2.70804461
    N     -2.89855945      9.01220474      3.29605733      5.95545077
   Si     -0.24667523     10.80674547      3.30007245      2.70783357
   Si      2.45274684      1.20316608      3.30061218      2.70831408
   Si     13.34165495      1.57175532      3.30066189      2.70805580
   Si     10.28091347      1.20350522      3.30316450      2.70805486
   Si      7.57252427     10.80928568      3.30390514      2.70820792
   Si      6.36397288      7.96908959      3.30398837      2.70802453
    N      9.24083271      6.57203929      3.30473170      5.95488832
   Si      3.66764524      4.03738532      3.30666091      2.70823542
   Si      5.51906230      1.57101094      3.30890906      2.70828011
    N      1.41254879      6.56846921      3.31585895      5.95486976
    N      1.02322745      2.26633784      3.31667686      5.95526177
    N     -6.44017794     11.53528477      3.32533727      5.95548480
    N      8.83564887      2.24255731      3.32654834      5.95483677
    N      5.33448156     13.34502725      3.32745304      5.95482359
    N      1.37772556     11.53817454      3.32787797      5.95483406
    N      4.92596642      9.01805439      3.32802375      5.95541520
    N      5.29639090      4.75724776      3.32923763      5.95591174
    N     -2.48621957     13.34425274      3.32989877      5.95504257
   Si     -1.66390545      5.22860063      4.73946769      2.69561377
    N     -1.42745320      6.99693501      4.74265098      5.96555250
    N     10.64641496      4.51580567      4.75137203      5.96804066
    N     10.25701903      8.85859286      4.76462218      5.96796470
   Si     -3.72707668      9.52898306      4.77510902      2.69484775
    N     -0.02768053      4.52902764      4.77784923      6.01120466
    N      2.43711862      8.85335481      4.77859510      5.96805591
   Si      9.22377049      5.59358550      4.77918065      2.69480513
    N      2.47652368      0.22657384      4.78136312      5.96750946
    N     14.17388441      2.08131319      4.78175115      5.96713630
    N     -1.10678300     11.26475742      4.78363886      5.96807558
    N     10.31387210      0.22654282      4.78427142      5.96866918
    N      6.39581264      6.99417649      4.78542356      5.96719612
    N      6.71341223     11.27052400      4.78603847      5.96789002
    N      2.81217927      4.50650264      4.78732754      5.96709243
    N      6.35061447      2.08646128      4.78885367      5.96768137
   Si      1.39791831      5.59437198      4.79364304      2.69497682
   Si      0.18406452      2.76245260      4.79413220      2.69528794
    N     -3.93926858     11.29820487      4.79495763      6.01123142
   Si     -5.57647358     12.00039372      4.79732750      2.69490520
    N      7.79834297      4.52561367      4.79910272      6.01108819
   Si      4.08927144      9.53003568      4.80019875      2.69498721
   Si      2.24149564     12.00288034      4.80063761      2.69515712
   Si      5.30420332     12.36538064      4.80109139      2.69491887
   Si      6.15992359      5.22538815      4.80148253      2.69484500
   Si      8.00437231      2.75676569      4.80149418      2.69505183
   Si     -2.51258396     12.36417456      4.80186085      2.69504436
    N      3.87773895     11.29843893      4.80532715      6.01147939
    N     -2.52726284      4.76889299      6.21950488      5.97105827
   Si     -1.44742117      7.96342110      6.22942302      2.69286651
   Si     11.48706636      4.04007247      6.23445714      2.69419771
    N     -2.89581953      8.99903346      6.24252138      5.96771725
    N      9.26169114      6.57951889      6.24652276      5.96914274
   Si      9.43205930      8.35235405      6.24689605      2.69374753
   Si      1.61190673      8.34942752      6.26088307      2.69388690
    N      1.01944266      2.23699266      6.26136265      5.96863769
   Si     13.34397313      1.57858857      6.26159665      2.69386450
    N      1.43630299      6.57787755      6.26192004      5.96790848
   Si      2.46317317      1.19519244      6.26229140      2.69375275
   Si     -0.25231649     10.80593012      6.26343063      2.69360737
   Si      6.37132741      7.96498554      6.26480992      2.69356966
   Si      7.56739423     10.80724208      6.26527033      2.69363343
   Si     10.28694159      1.19535598      6.26529272      2.69392468
    N     -6.44971462     11.54377632      6.26617285      5.96911437
   Si      3.66291748      4.03679840      6.26628000      2.69376025
    N      4.92180503      8.99957718      6.26710333      5.96846277