|===============================================================================
|
|  DFTB+ release 19.1
|
|  Copyright (C) 2006 - 2019  DFTB+ developers group
|
|===============================================================================
|
|  When publishing results obtained with DFTB+, please cite the following
|  reference:
|
|  * B. Aradi, B. Hourahine and T. Frauenheim,
|    DFTB+, a Sparse Matrix-Based Implementation of the DFTB Method,
|    J. Phys. Chem. A, 111 5678 (2007).  [doi: 10.1021/jp070186p]
|
|  You should also cite additional publications crediting the parametrization
|  data you use. Please consult the documentation of the SK-files for the
|  references.
|
|===============================================================================

Reading input file 'dftb_in.hsd'
Parser version: 7

--------------------------------------------------------------------------------
Reading SK-files:
Done.
WARNING!
-> The following 4 node(s) have been ignored by the parser:
(1)
Path: dftbplusinput/Hamiltonian/DFTB/MaxAngularMomentum/H
Line: 27-27 (File: dftb_in.hsd)
(2)
Path: dftbplusinput/Hamiltonian/DFTB/MaxAngularMomentum/N
Line: 28-28 (File: dftb_in.hsd)
(3)
Path: dftbplusinput/Hamiltonian/DFTB/MaxAngularMomentum/O
Line: 29-29 (File: dftb_in.hsd)
(4)
Path: dftbplusinput/Hamiltonian/DFTB/MaxAngularMomentum/Si
Line: 30-30 (File: dftb_in.hsd)



Processed input in HSD format written to 'dftb_pin.hsd'

Starting initialization...
--------------------------------------------------------------------------------
OpenMP threads:              8
Chosen random seed:          66094993
Mode:                        MD without scaling of velocities
                             (a.k.a. NVE ensemble)
Self consistent charges:     No
Spin polarisation:           No
Nr. of up electrons:            16.000000
Nr. of down electrons:          16.000000
Periodic boundaries:         Yes
Electronic solver:           Relatively robust
Electronic temperature:        0.100000E-07 H      0.272114E-06 eV
Time step:                     0.413000E+01
Included shells:             C:  s, p
                             F:  s, p
K-points and weights:           1:  0.000000  0.000000  0.000000     1.000000

K-points in absolute space:     1:  0.000000  0.000000  0.000000

Extra options:
                             Mulliken analysis
Force type                   original

--------------------------------------------------------------------------------

***  Geometry step: 0


Total Energy:                      -19.3217559770 H         -525.7717 eV
Extrapolated to 0:                 -19.3217559770 H         -525.7717 eV
Total Mermin free energy:          -19.3217559770 H         -525.7717 eV
Force related energy:              -19.3217559770 H         -525.7717 eV
Volume:                              0.100434E+05 au^3   0.148828E+04 A^3
MD Temperature:                      0.0037188674 H         1174.3240 K
MD Kinetic Energy:                   0.0223132045 H            0.6072 eV
Total MD Energy:                   -19.2994427726 H         -525.1646 eV
Pressure:                            0.145468E-04 au     0.427980E+09 Pa
Gibbs free energy including KE:    -19.2994427726 H         -525.1646 eV

--------------------------------------------------------------------------------

***  Geometry step: 1


Total Energy:                      -19.3217489215 H         -525.7715 eV
Extrapolated to 0:                 -19.3217489215 H         -525.7715 eV
Total Mermin free energy:          -19.3217489215 H         -525.7715 eV
Force related energy:              -19.3217489215 H         -525.7715 eV
Volume:                              0.100434E+05 au^3   0.148828E+04 A^3
MD Temperature:                      0.0037176915 H         1173.9527 K
MD Kinetic Energy:                   0.0223061490 H            0.6070 eV
Total MD Energy:                   -19.2994427725 H         -525.1646 eV
Pressure:                            0.145545E-04 au     0.428207E+09 Pa
Gibbs free energy including KE:    -19.2994427725 H         -525.1646 eV

--------------------------------------------------------------------------------

***  Geometry step: 2


Total Energy:                      -19.3217425530 H         -525.7714 eV
Extrapolated to 0:                 -19.3217425530 H         -525.7714 eV
Total Mermin free energy:          -19.3217425530 H         -525.7714 eV
Force related energy:              -19.3217425530 H         -525.7714 eV
Volume:                              0.100434E+05 au^3   0.148828E+04 A^3
MD Temperature:                      0.0037166301 H         1173.6176 K
MD Kinetic Energy:                   0.0222997805 H            0.6068 eV
Total MD Energy:                   -19.2994427725 H         -525.1646 eV
Pressure:                            0.145586E-04 au     0.428330E+09 Pa
Gibbs free energy including KE:    -19.2994427725 H         -525.1646 eV

--------------------------------------------------------------------------------

***  Geometry step: 3


Total Energy:                      -19.3217368736 H         -525.7712 eV
Extrapolated to 0:                 -19.3217368736 H         -525.7712 eV
Total Mermin free energy:          -19.3217368736 H         -525.7712 eV
Force related energy:              -19.3217368736 H         -525.7712 eV
Volume:                              0.100434E+05 au^3   0.148828E+04 A^3
MD Temperature:                      0.0037156835 H         1173.3187 K
MD Kinetic Energy:                   0.0222941012 H            0.6067 eV
Total MD Energy:                   -19.2994427724 H         -525.1646 eV
Pressure:                            0.145593E-04 au     0.428350E+09 Pa
Gibbs free energy including KE:    -19.2994427724 H         -525.1646 eV

--------------------------------------------------------------------------------

***  Geometry step: 4


Total Energy:                      -19.3217318854 H         -525.7711 eV
Extrapolated to 0:                 -19.3217318854 H         -525.7711 eV
Total Mermin free energy:          -19.3217318854 H         -525.7711 eV
Force related energy:              -19.3217318854 H         -525.7711 eV
Volume:                              0.100434E+05 au^3   0.148828E+04 A^3
MD Temperature:                      0.0037148522 H         1173.0561 K
MD Kinetic Energy:                   0.0222891130 H            0.6065 eV
Total MD Energy:                   -19.2994427724 H         -525.1646 eV
Pressure:                            0.145565E-04 au     0.428268E+09 Pa
Gibbs free energy including KE:    -19.2994427724 H         -525.1646 eV

--------------------------------------------------------------------------------

***  Geometry step: 5


Total Energy:                      -19.3217275898 H         -525.7710 eV
Extrapolated to 0:                 -19.3217275898 H         -525.7710 eV
Total Mermin free energy:          -19.3217275898 H         -525.7710 eV
Force related energy:              -19.3217275898 H         -525.7710 eV
Volume:                              0.100434E+05 au^3   0.148828E+04 A^3
MD Temperature:                      0.0037141362 H         1172.8301 K
MD Kinetic Energy:                   0.0222848173 H            0.6064 eV
Total MD Energy:                   -19.2994427725 H         -525.1646 eV
Pressure:                            0.145502E-04 au     0.428082E+09 Pa
Gibbs free energy including KE:    -19.2994427725 H         -525.1646 eV

--------------------------------------------------------------------------------

***  Geometry step: 6


Total Energy:                      -19.3217239877 H         -525.7709 eV
Extrapolated to 0:                 -19.3217239877 H         -525.7709 eV
Total Mermin free energy:          -19.3217239877 H         -525.7709 eV
Force related energy:              -19.3217239877 H         -525.7709 eV
Volume:                              0.100434E+05 au^3   0.148828E+04 A^3
MD Temperature:                      0.0037135359 H         1172.6405 K
MD Kinetic Energy:                   0.0222812152 H            0.6063 eV
Total MD Energy:                   -19.2994427725 H         -525.1646 eV
Pressure:                            0.145404E-04 au     0.427793E+09 Pa
Gibbs free energy including KE:    -19.2994427725 H         -525.1646 eV

--------------------------------------------------------------------------------

***  Geometry step: 7


Total Energy:                      -19.3217210797 H         -525.7708 eV
Extrapolated to 0:                 -19.3217210797 H         -525.7708 eV
Total Mermin free energy:          -19.3217210797 H         -525.7708 eV
Force related energy:              -19.3217210797 H         -525.7708 eV
Volume:                              0.100434E+05 au^3   0.148828E+04 A^3
MD Temperature:                      0.0037130512 H         1172.4874 K
MD Kinetic Energy:                   0.0222783071 H            0.6062 eV
Total MD Energy:                   -19.2994427726 H         -525.1646 eV
Pressure:                            0.145271E-04 au     0.427402E+09 Pa
Gibbs free energy including KE:    -19.2994427726 H         -525.1646 eV

--------------------------------------------------------------------------------

***  Geometry step: 8


Total Energy:                      -19.3217188655 H         -525.7707 eV
Extrapolated to 0:                 -19.3217188655 H         -525.7707 eV
Total Mermin free energy:          -19.3217188655 H         -525.7707 eV
Force related energy:              -19.3217188655 H         -525.7707 eV
Volume:                              0.100434E+05 au^3   0.148828E+04 A^3
MD Temperature:                      0.0037126821 H         1172.3709 K
MD Kinetic Energy:                   0.0222760928 H            0.6062 eV
Total MD Energy:                   -19.2994427727 H         -525.1646 eV
Pressure:                            0.145104E-04 au     0.426909E+09 Pa
Gibbs free energy including KE:    -19.2994427727 H         -525.1646 eV

--------------------------------------------------------------------------------

***  Geometry step: 9


Total Energy:                      -19.3217173438 H         -525.7707 eV
Extrapolated to 0:                 -19.3217173438 H         -525.7707 eV
Total Mermin free energy:          -19.3217173438 H         -525.7707 eV
Force related energy:              -19.3217173438 H         -525.7707 eV
Volume:                              0.100434E+05 au^3   0.148828E+04 A^3
MD Temperature:                      0.0037124285 H         1172.2908 K
MD Kinetic Energy:                   0.0222745710 H            0.6061 eV
Total MD Energy:                   -19.2994427728 H         -525.1646 eV
Pressure:                            0.144902E-04 au     0.426315E+09 Pa
Gibbs free energy including KE:    -19.2994427728 H         -525.1646 eV

--------------------------------------------------------------------------------

***  Geometry step: 10


Total Energy:                      -19.3217165131 H         -525.7707 eV
Extrapolated to 0:                 -19.3217165131 H         -525.7707 eV
Total Mermin free energy:          -19.3217165131 H         -525.7707 eV
Force related energy:              -19.3217165131 H         -525.7707 eV
Volume:                              0.100434E+05 au^3   0.148828E+04 A^3
MD Temperature:                      0.0037122900 H         1172.2471 K
MD Kinetic Energy:                   0.0222737402 H            0.6061 eV
Total MD Energy:                   -19.2994427730 H         -525.1646 eV
Pressure:                            0.144665E-04 au     0.425620E+09 Pa
Gibbs free energy including KE:    -19.2994427730 H         -525.1646 eV

--------------------------------------------------------------------------------

***  Geometry step: 11


Total Energy:                      -19.3217163716 H         -525.7707 eV
Extrapolated to 0:                 -19.3217163716 H         -525.7707 eV
Total Mermin free energy:          -19.3217163716 H         -525.7707 eV
Force related energy:              -19.3217163716 H         -525.7707 eV
Volume:                              0.100434E+05 au^3   0.148828E+04 A^3
MD Temperature:                      0.0037122664 H         1172.2396 K
MD Kinetic Energy:                   0.0222735984 H            0.6061 eV
Total MD Energy:                   -19.2994427731 H         -525.1646 eV
Pressure:                            0.144395E-04 au     0.424823E+09 Pa
Gibbs free energy including KE:    -19.2994427731 H         -525.1646 eV

--------------------------------------------------------------------------------

***  Geometry step: 12


Total Energy:                      -19.3217169168 H         -525.7707 eV
Extrapolated to 0:                 -19.3217169168 H         -525.7707 eV
Total Mermin free energy:          -19.3217169168 H         -525.7707 eV
Force related energy:              -19.3217169168 H         -525.7707 eV
Volume:                              0.100434E+05 au^3   0.148828E+04 A^3
MD Temperature:                      0.0037123572 H         1172.2683 K
MD Kinetic Energy:                   0.0222741435 H            0.6061 eV
Total MD Energy:                   -19.2994427733 H         -525.1646 eV
Pressure:                            0.144090E-04 au     0.423926E+09 Pa
Gibbs free energy including KE:    -19.2994427733 H         -525.1646 eV

--------------------------------------------------------------------------------

***  Geometry step: 13


Total Energy:                      -19.3217181461 H         -525.7707 eV
Extrapolated to 0:                 -19.3217181461 H         -525.7707 eV
Total Mermin free energy:          -19.3217181461 H         -525.7707 eV
Force related energy:              -19.3217181461 H         -525.7707 eV
Volume:                              0.100434E+05 au^3   0.148828E+04 A^3
MD Temperature:                      0.0037125621 H         1172.3330 K
MD Kinetic Energy:                   0.0222753726 H            0.6061 eV
Total MD Energy:                   -19.2994427735 H         -525.1646 eV
Pressure:                            0.143750E-04 au     0.422928E+09 Pa
Gibbs free energy including KE:    -19.2994427735 H         -525.1646 eV

--------------------------------------------------------------------------------

***  Geometry step: 14


Total Energy:                      -19.3217200564 H         -525.7708 eV
Extrapolated to 0:                 -19.3217200564 H         -525.7708 eV
Total Mermin free energy:          -19.3217200564 H         -525.7708 eV
Force related energy:              -19.3217200564 H         -525.7708 eV
Volume:                              0.100434E+05 au^3   0.148828E+04 A^3
MD Temperature:                      0.0037128804 H         1172.4335 K
MD Kinetic Energy:                   0.0222772827 H            0.6062 eV
Total MD Energy:                   -19.2994427737 H         -525.1646 eV
Pressure:                            0.143377E-04 au     0.421829E+09 Pa
Gibbs free energy including KE:    -19.2994427737 H         -525.1646 eV

--------------------------------------------------------------------------------

***  Geometry step: 15


Total Energy:                      -19.3217226441 H         -525.7708 eV
Extrapolated to 0:                 -19.3217226441 H         -525.7708 eV
Total Mermin free energy:          -19.3217226441 H         -525.7708 eV
Force related energy:              -19.3217226441 H         -525.7708 eV
Volume:                              0.100434E+05 au^3   0.148828E+04 A^3
MD Temperature:                      0.0037133117 H         1172.5697 K
MD Kinetic Energy:                   0.0222798702 H            0.6063 eV
Total MD Energy:                   -19.2994427739 H         -525.1646 eV
Pressure:                            0.142970E-04 au     0.420631E+09 Pa
Gibbs free energy including KE:    -19.2994427739 H         -525.1646 eV

--------------------------------------------------------------------------------

***  Geometry step: 16


Total Energy:                      -19.3217259054 H         -525.7709 eV
Extrapolated to 0:                 -19.3217259054 H         -525.7709 eV
Total Mermin free energy:          -19.3217259054 H         -525.7709 eV
Force related energy:              -19.3217259054 H         -525.7709 eV
Volume:                              0.100434E+05 au^3   0.148828E+04 A^3
MD Temperature:                      0.0037138552 H         1172.7413 K
MD Kinetic Energy:                   0.0222831312 H            0.6064 eV
Total MD Energy:                   -19.2994427742 H         -525.1646 eV
Pressure:                            0.142528E-04 au     0.419332E+09 Pa
Gibbs free energy including KE:    -19.2994427742 H         -525.1646 eV

--------------------------------------------------------------------------------

***  Geometry step: 17


Total Energy:                      -19.3217298357 H         -525.7710 eV
Extrapolated to 0:                 -19.3217298357 H         -525.7710 eV
Total Mermin free energy:          -19.3217298357 H         -525.7710 eV
Force related energy:              -19.3217298357 H         -525.7710 eV
Volume:                              0.100434E+05 au^3   0.148828E+04 A^3
MD Temperature:                      0.0037145102 H         1172.9482 K
MD Kinetic Energy:                   0.0222870613 H            0.6065 eV
Total MD Energy:                   -19.2994427744 H         -525.1646 eV
Pressure:                            0.142053E-04 au     0.417934E+09 Pa
Gibbs free energy including KE:    -19.2994427744 H         -525.1646 eV

--------------------------------------------------------------------------------

***  Geometry step: 18


Total Energy:                      -19.3217344302 H         -525.7711 eV
Extrapolated to 0:                 -19.3217344302 H         -525.7711 eV
Total Mermin free energy:          -19.3217344302 H         -525.7711 eV
Force related energy:              -19.3217344302 H         -525.7711 eV
Volume:                              0.100434E+05 au^3   0.148828E+04 A^3
MD Temperature:                      0.0037152759 H         1173.1899 K
MD Kinetic Energy:                   0.0222916555 H            0.6066 eV
Total MD Energy:                   -19.2994427747 H         -525.1646 eV
Pressure:                            0.141544E-04 au     0.416437E+09 Pa
Gibbs free energy including KE:    -19.2994427747 H         -525.1646 eV

--------------------------------------------------------------------------------

***  Geometry step: 19


Total Energy:                      -19.3217396834 H         -525.7713 eV
Extrapolated to 0:                 -19.3217396834 H         -525.7713 eV
Total Mermin free energy:          -19.3217396834 H         -525.7713 eV
Force related energy:              -19.3217396834 H         -525.7713 eV
Volume:                              0.100434E+05 au^3   0.148828E+04 A^3
MD Temperature:                      0.0037161514 H         1173.4664 K
MD Kinetic Energy:                   0.0222969084 H            0.6067 eV
Total MD Energy:                   -19.2994427750 H         -525.1646 eV
Pressure:                            0.141002E-04 au     0.414841E+09 Pa
Gibbs free energy including KE:    -19.2994427750 H         -525.1646 eV

--------------------------------------------------------------------------------

***  Geometry step: 20


Total Energy:                      -19.3217455888 H         -525.7714 eV
Extrapolated to 0:                 -19.3217455888 H         -525.7714 eV
Total Mermin free energy:          -19.3217455888 H         -525.7714 eV
Force related energy:              -19.3217455888 H         -525.7714 eV
Volume:                              0.100434E+05 au^3   0.148828E+04 A^3
MD Temperature:                      0.0037171356 H         1173.7772 K
MD Kinetic Energy:                   0.0223028134 H            0.6069 eV
Total MD Energy:                   -19.2994427754 H         -525.1646 eV
Pressure:                            0.140425E-04 au     0.413145E+09 Pa
Gibbs free energy including KE:    -19.2994427754 H         -525.1646 eV

--------------------------------------------------------------------------------

***  Geometry step: 21


Total Energy:                      -19.3217521390 H         -525.7716 eV
Extrapolated to 0:                 -19.3217521390 H         -525.7716 eV
Total Mermin free energy:          -19.3217521390 H         -525.7716 eV
Force related energy:              -19.3217521390 H         -525.7716 eV
Volume:                              0.100434E+05 au^3   0.148828E+04 A^3
MD Temperature:                      0.0037182272 H         1174.1219 K
MD Kinetic Energy:                   0.0223093632 H            0.6071 eV
Total MD Energy:                   -19.2994427758 H         -525.1646 eV
Pressure:                            0.139815E-04 au     0.411351E+09 Pa
Gibbs free energy including KE:    -19.2994427758 H         -525.1646 eV

--------------------------------------------------------------------------------

***  Geometry step: 22


Total Energy:                      -19.3217593256 H         -525.7718 eV
Extrapolated to 0:                 -19.3217593256 H         -525.7718 eV
Total Mermin free energy:          -19.3217593256 H         -525.7718 eV
Force related energy:              -19.3217593256 H         -525.7718 eV
Volume:                              0.100434E+05 au^3   0.148828E+04 A^3
MD Temperature:                      0.0037194249 H         1174.5001 K
MD Kinetic Energy:                   0.0223165493 H            0.6073 eV
Total MD Energy:                   -19.2994427763 H         -525.1646 eV
Pressure:                            0.139172E-04 au     0.409457E+09 Pa
Gibbs free energy including KE:    -19.2994427763 H         -525.1646 eV

--------------------------------------------------------------------------------

***  Geometry step: 23


Total Energy:                      -19.3217671398 H         -525.7720 eV
Extrapolated to 0:                 -19.3217671398 H         -525.7720 eV
Total Mermin free energy:          -19.3217671398 H         -525.7720 eV
Force related energy:              -19.3217671398 H         -525.7720 eV
Volume:                              0.100434E+05 au^3   0.148828E+04 A^3
MD Temperature:                      0.0037207272 H         1174.9113 K
MD Kinetic Energy:                   0.0223243630 H            0.6075 eV
Total MD Energy:                   -19.2994427768 H         -525.1646 eV
Pressure:                            0.138495E-04 au     0.407465E+09 Pa
Gibbs free energy including KE:    -19.2994427768 H         -525.1646 eV

--------------------------------------------------------------------------------

***  Geometry step: 24


Total Energy:                      -19.3217755718 H         -525.7723 eV
Extrapolated to 0:                 -19.3217755718 H         -525.7723 eV
Total Mermin free energy:          -19.3217755718 H         -525.7723 eV
Force related energy:              -19.3217755718 H         -525.7723 eV
Volume:                              0.100434E+05 au^3   0.148828E+04 A^3
MD Temperature:                      0.0037221324 H         1175.3551 K
MD Kinetic Energy:                   0.0223327945 H            0.6077 eV
Total MD Energy:                   -19.2994427773 H         -525.1646 eV
Pressure:                            0.137785E-04 au     0.405376E+09 Pa
Gibbs free energy including KE:    -19.2994427773 H         -525.1646 eV

--------------------------------------------------------------------------------

***  Geometry step: 25


Total Energy:                      -19.3217846114 H         -525.7725 eV
Extrapolated to 0:                 -19.3217846114 H         -525.7725 eV
Total Mermin free energy:          -19.3217846114 H         -525.7725 eV
Force related energy:              -19.3217846114 H         -525.7725 eV
Volume:                              0.100434E+05 au^3   0.148828E+04 A^3
MD Temperature:                      0.0037236389 H         1175.8308 K
MD Kinetic Energy:                   0.0223418335 H            0.6080 eV
Total MD Energy:                   -19.2994427779 H         -525.1646 eV
Pressure:                            0.137041E-04 au     0.403189E+09 Pa
Gibbs free energy including KE:    -19.2994427779 H         -525.1646 eV

--------------------------------------------------------------------------------

***  Geometry step: 26


Total Energy:                      -19.3217942473 H         -525.7728 eV
Extrapolated to 0:                 -19.3217942473 H         -525.7728 eV
Total Mermin free energy:          -19.3217942473 H         -525.7728 eV
Force related energy:              -19.3217942473 H         -525.7728 eV
Volume:                              0.100434E+05 au^3   0.148828E+04 A^3
MD Temperature:                      0.0037252448 H         1176.3379 K
MD Kinetic Energy:                   0.0223514688 H            0.6082 eV
Total MD Energy:                   -19.2994427785 H         -525.1646 eV
Pressure:                            0.136265E-04 au     0.400906E+09 Pa
Gibbs free energy including KE:    -19.2994427785 H         -525.1646 eV

--------------------------------------------------------------------------------

***  Geometry step: 27


Total Energy:                      -19.3218044677 H         -525.7731 eV
Extrapolated to 0:                 -19.3218044677 H         -525.7731 eV
Total Mermin free energy:          -19.3218044677 H         -525.7731 eV
Force related energy:              -19.3218044677 H         -525.7731 eV
Volume:                              0.100434E+05 au^3   0.148828E+04 A^3
MD Temperature:                      0.0037269481 H         1176.8757 K
MD Kinetic Energy:                   0.0223616885 H            0.6085 eV
Total MD Energy:                   -19.2994427792 H         -525.1646 eV
Pressure:                            0.135457E-04 au     0.398527E+09 Pa
Gibbs free energy including KE:    -19.2994427792 H         -525.1646 eV

--------------------------------------------------------------------------------

***  Geometry step: 28


Total Energy:                      -19.3218152595 H         -525.7733 eV
Extrapolated to 0:                 -19.3218152595 H         -525.7733 eV
Total Mermin free energy:          -19.3218152595 H         -525.7733 eV
Force related energy:              -19.3218152595 H         -525.7733 eV
Volume:                              0.100434E+05 au^3   0.148828E+04 A^3
MD Temperature:                      0.0037287466 H         1177.4436 K
MD Kinetic Energy:                   0.0223724796 H            0.6088 eV
Total MD Energy:                   -19.2994427799 H         -525.1646 eV
Pressure:                            0.134616E-04 au     0.396053E+09 Pa
Gibbs free energy including KE:    -19.2994427799 H         -525.1646 eV

--------------------------------------------------------------------------------

***  Geometry step: 29


Total Energy:                      -19.3218266091 H         -525.7737 eV
Extrapolated to 0:                 -19.3218266091 H         -525.7737 eV
Total Mermin free energy:          -19.3218266091 H         -525.7737 eV
Force related energy:              -19.3218266091 H         -525.7737 eV
Volume:                              0.100434E+05 au^3   0.148828E+04 A^3
MD Temperature:                      0.0037306381 H         1178.0409 K
MD Kinetic Energy:                   0.0223838285 H            0.6091 eV
Total MD Energy:                   -19.2994427806 H         -525.1646 eV
Pressure:                            0.133742E-04 au     0.393484E+09 Pa
Gibbs free energy including KE:    -19.2994427806 H         -525.1646 eV

--------------------------------------------------------------------------------

***  Geometry step: 30


Total Energy:                      -19.3218385020 H         -525.7740 eV
Extrapolated to 0:                 -19.3218385020 H         -525.7740 eV
Total Mermin free energy:          -19.3218385020 H         -525.7740 eV
Force related energy:              -19.3218385020 H         -525.7740 eV
Volume:                              0.100434E+05 au^3   0.148828E+04 A^3
MD Temperature:                      0.0037326201 H         1178.6668 K
MD Kinetic Energy:                   0.0223957205 H            0.6094 eV
Total MD Energy:                   -19.2994427814 H         -525.1646 eV
Pressure:                            0.132837E-04 au     0.390821E+09 Pa
Gibbs free energy including KE:    -19.2994427814 H         -525.1646 eV

--------------------------------------------------------------------------------

***  Geometry step: 31


Total Energy:                      -19.3218509223 H         -525.7743 eV
Extrapolated to 0:                 -19.3218509223 H         -525.7743 eV
Total Mermin free energy:          -19.3218509223 H         -525.7743 eV
Force related energy:              -19.3218509223 H         -525.7743 eV
Volume:                              0.100434E+05 au^3   0.148828E+04 A^3
MD Temperature:                      0.0037346900 H         1179.3204 K
MD Kinetic Energy:                   0.0224081400 H            0.6098 eV
Total MD Energy:                   -19.2994427823 H         -525.1646 eV
Pressure:                            0.131900E-04 au     0.388064E+09 Pa
Gibbs free energy including KE:    -19.2994427823 H         -525.1646 eV

--------------------------------------------------------------------------------

***  Geometry step: 32


Total Energy:                      -19.3218638536 H         -525.7747 eV
Extrapolated to 0:                 -19.3218638536 H         -525.7747 eV
Total Mermin free energy:          -19.3218638536 H         -525.7747 eV
Force related energy:              -19.3218638536 H         -525.7747 eV
Volume:                              0.100434E+05 au^3   0.148828E+04 A^3
MD Temperature:                      0.0037368451 H         1180.0009 K
MD Kinetic Energy:                   0.0224210704 H            0.6101 eV
Total MD Energy:                   -19.2994427832 H         -525.1646 eV
Pressure:                            0.130932E-04 au     0.385216E+09 Pa
Gibbs free energy including KE:    -19.2994427832 H         -525.1646 eV

--------------------------------------------------------------------------------

***  Geometry step: 33


Total Energy:                      -19.3218772783 H         -525.7750 eV
Extrapolated to 0:                 -19.3218772783 H         -525.7750 eV
Total Mermin free energy:          -19.3218772783 H         -525.7750 eV
Force related energy:              -19.3218772783 H         -525.7750 eV
Volume:                              0.100434E+05 au^3   0.148828E+04 A^3
MD Temperature:                      0.0037390823 H         1180.7074 K
MD Kinetic Energy:                   0.0224344941 H            0.6105 eV
Total MD Energy:                   -19.2994427842 H         -525.1646 eV
Pressure:                            0.129933E-04 au     0.382276E+09 Pa
Gibbs free energy including KE:    -19.2994427842 H         -525.1646 eV

--------------------------------------------------------------------------------

***  Geometry step: 34


Total Energy:                      -19.3218911776 H         -525.7754 eV
Extrapolated to 0:                 -19.3218911776 H         -525.7754 eV
Total Mermin free energy:          -19.3218911776 H         -525.7754 eV
Force related energy:              -19.3218911776 H         -525.7754 eV
Volume:                              0.100434E+05 au^3   0.148828E+04 A^3
MD Temperature:                      0.0037413987 H         1181.4389 K
MD Kinetic Energy:                   0.0224483923 H            0.6109 eV
Total MD Energy:                   -19.2994427852 H         -525.1646 eV
Pressure:                            0.128903E-04 au     0.379245E+09 Pa
Gibbs free energy including KE:    -19.2994427852 H         -525.1646 eV

--------------------------------------------------------------------------------

***  Geometry step: 35


Total Energy:                      -19.3219055317 H         -525.7758 eV
Extrapolated to 0:                 -19.3219055317 H         -525.7758 eV
Total Mermin free energy:          -19.3219055317 H         -525.7758 eV
Force related energy:              -19.3219055317 H         -525.7758 eV
Volume:                              0.100434E+05 au^3   0.148828E+04 A^3
MD Temperature:                      0.0037437909 H         1182.1942 K
MD Kinetic Energy:                   0.0224627453 H            0.6112 eV
Total MD Energy:                   -19.2994427864 H         -525.1646 eV
Pressure:                            0.127842E-04 au     0.376124E+09 Pa
Gibbs free energy including KE:    -19.2994427864 H         -525.1646 eV

--------------------------------------------------------------------------------

***  Geometry step: 36


Total Energy:                      -19.3219203195 H         -525.7762 eV
Extrapolated to 0:                 -19.3219203195 H         -525.7762 eV
Total Mermin free energy:          -19.3219203195 H         -525.7762 eV
Force related energy:              -19.3219203195 H         -525.7762 eV
Volume:                              0.100434E+05 au^3   0.148828E+04 A^3
MD Temperature:                      0.0037462553 H         1182.9725 K
MD Kinetic Energy:                   0.0224775319 H            0.6116 eV
Total MD Energy:                   -19.2994427875 H         -525.1646 eV
Pressure:                            0.126751E-04 au     0.372913E+09 Pa
Gibbs free energy including KE:    -19.2994427875 H         -525.1646 eV

--------------------------------------------------------------------------------

***  Geometry step: 37


Total Energy:                      -19.3219355186 H         -525.7766 eV
Extrapolated to 0:                 -19.3219355186 H         -525.7766 eV
Total Mermin free energy:          -19.3219355186 H         -525.7766 eV
Force related energy:              -19.3219355186 H         -525.7766 eV
Volume:                              0.100434E+05 au^3   0.148828E+04 A^3
MD Temperature:                      0.0037487883 H         1183.7723 K
MD Kinetic Energy:                   0.0224927298 H            0.6121 eV
Total MD Energy:                   -19.2994427888 H         -525.1646 eV
Pressure:                            0.125629E-04 au     0.369614E+09 Pa
Gibbs free energy including KE:    -19.2994427888 H         -525.1646 eV

--------------------------------------------------------------------------------

***  Geometry step: 38


Total Energy:                      -19.3219511057 H         -525.7770 eV
Extrapolated to 0:                 -19.3219511057 H         -525.7770 eV
Total Mermin free energy:          -19.3219511057 H         -525.7770 eV
Force related energy:              -19.3219511057 H         -525.7770 eV
Volume:                              0.100434E+05 au^3   0.148828E+04 A^3
MD Temperature:                      0.0037513859 H         1184.5926 K
MD Kinetic Energy:                   0.0225083156 H            0.6125 eV
Total MD Energy:                   -19.2994427901 H         -525.1646 eV
Pressure:                            0.124478E-04 au     0.366227E+09 Pa
Gibbs free energy including KE:    -19.2994427901 H         -525.1646 eV

--------------------------------------------------------------------------------

***  Geometry step: 39


Total Energy:                      -19.3219670561 H         -525.7775 eV
Extrapolated to 0:                 -19.3219670561 H         -525.7775 eV
Total Mermin free energy:          -19.3219670561 H         -525.7775 eV
Force related energy:              -19.3219670561 H         -525.7775 eV
Volume:                              0.100434E+05 au^3   0.148828E+04 A^3
MD Temperature:                      0.0037540441 H         1185.4320 K
MD Kinetic Energy:                   0.0225242646 H            0.6129 eV
Total MD Energy:                   -19.2994427915 H         -525.1646 eV
Pressure:                            0.123297E-04 au     0.362753E+09 Pa
Gibbs free energy including KE:    -19.2994427915 H         -525.1646 eV

--------------------------------------------------------------------------------

***  Geometry step: 40


Total Energy:                      -19.3219833438 H         -525.7779 eV
Extrapolated to 0:                 -19.3219833438 H         -525.7779 eV
Total Mermin free energy:          -19.3219833438 H         -525.7779 eV
Force related energy:              -19.3219833438 H         -525.7779 eV
Volume:                              0.100434E+05 au^3   0.148828E+04 A^3
MD Temperature:                      0.0037567585 H         1186.2891 K
MD Kinetic Energy:                   0.0225405508 H            0.6134 eV
Total MD Energy:                   -19.2994427930 H         -525.1646 eV
Pressure:                            0.122087E-04 au     0.359193E+09 Pa
Gibbs free energy including KE:    -19.2994427930 H         -525.1646 eV

--------------------------------------------------------------------------------

***  Geometry step: 41


Total Energy:                      -19.3219999417 H         -525.7784 eV
Extrapolated to 0:                 -19.3219999417 H         -525.7784 eV
Total Mermin free energy:          -19.3219999417 H         -525.7784 eV
Force related energy:              -19.3219999417 H         -525.7784 eV
Volume:                              0.100434E+05 au^3   0.148828E+04 A^3
MD Temperature:                      0.0037595245 H         1187.1625 K
MD Kinetic Energy:                   0.0225571472 H            0.6138 eV
Total MD Energy:                   -19.2994427945 H         -525.1646 eV
Pressure:                            0.120849E-04 au     0.355549E+09 Pa
Gibbs free energy including KE:    -19.2994427945 H         -525.1646 eV

--------------------------------------------------------------------------------

***  Geometry step: 42


Total Energy:                      -19.3220168210 H         -525.7788 eV
Extrapolated to 0:                 -19.3220168210 H         -525.7788 eV
Total Mermin free energy:          -19.3220168210 H         -525.7788 eV
Force related energy:              -19.3220168210 H         -525.7788 eV
Volume:                              0.100434E+05 au^3   0.148828E+04 A^3
MD Temperature:                      0.0037623375 H         1188.0508 K
MD Kinetic Energy:                   0.0225740248 H            0.6143 eV
Total MD Energy:                   -19.2994427962 H         -525.1646 eV
Pressure:                            0.119581E-04 au     0.351821E+09 Pa
Gibbs free energy including KE:    -19.2994427962 H         -525.1646 eV

--------------------------------------------------------------------------------

***  Geometry step: 43


Total Energy:                      -19.3220339508 H         -525.7793 eV
Extrapolated to 0:                 -19.3220339508 H         -525.7793 eV
Total Mermin free energy:          -19.3220339508 H         -525.7793 eV
Force related energy:              -19.3220339508 H         -525.7793 eV
Volume:                              0.100434E+05 au^3   0.148828E+04 A^3
MD Temperature:                      0.0037651921 H         1188.9522 K
MD Kinetic Energy:                   0.0225911528 H            0.6147 eV
Total MD Energy:                   -19.2994427980 H         -525.1646 eV
Pressure:                            0.118285E-04 au     0.348008E+09 Pa
Gibbs free energy including KE:    -19.2994427980 H         -525.1646 eV

--------------------------------------------------------------------------------

***  Geometry step: 44


Total Energy:                      -19.3220512991 H         -525.7798 eV
Extrapolated to 0:                 -19.3220512991 H         -525.7798 eV
Total Mermin free energy:          -19.3220512991 H         -525.7798 eV
Force related energy:              -19.3220512991 H         -525.7798 eV
Volume:                              0.100434E+05 au^3   0.148828E+04 A^3
MD Temperature:                      0.0037680832 H         1189.8651 K
MD Kinetic Energy:                   0.0226084992 H            0.6152 eV
Total MD Energy:                   -19.2994427999 H         -525.1646 eV
Pressure:                            0.116961E-04 au     0.344112E+09 Pa
Gibbs free energy including KE:    -19.2994427999 H         -525.1646 eV

--------------------------------------------------------------------------------

***  Geometry step: 45


Total Energy:                      -19.3220688324 H         -525.7802 eV
Extrapolated to 0:                 -19.3220688324 H         -525.7802 eV
Total Mermin free energy:          -19.3220688324 H         -525.7802 eV
Force related energy:              -19.3220688324 H         -525.7802 eV
Volume:                              0.100434E+05 au^3   0.148828E+04 A^3
MD Temperature:                      0.0037710051 H         1190.7878 K
MD Kinetic Energy:                   0.0226260306 H            0.6157 eV
Total MD Energy:                   -19.2994428018 H         -525.1646 eV
Pressure:                            0.115609E-04 au     0.340135E+09 Pa
Gibbs free energy including KE:    -19.2994428018 H         -525.1646 eV

--------------------------------------------------------------------------------

***  Geometry step: 46


Total Energy:                      -19.3220865162 H         -525.7807 eV
Extrapolated to 0:                 -19.3220865162 H         -525.7807 eV
Total Mermin free energy:          -19.3220865162 H         -525.7807 eV
Force related energy:              -19.3220865162 H         -525.7807 eV
Volume:                              0.100434E+05 au^3   0.148828E+04 A^3
MD Temperature:                      0.0037739521 H         1191.7184 K
MD Kinetic Energy:                   0.0226437124 H            0.6162 eV
Total MD Energy:                   -19.2994428038 H         -525.1646 eV
Pressure:                            0.114230E-04 au     0.336077E+09 Pa
Gibbs free energy including KE:    -19.2994428038 H         -525.1646 eV

--------------------------------------------------------------------------------

***  Geometry step: 47


Total Energy:                      -19.3221043147 H         -525.7812 eV
Extrapolated to 0:                 -19.3221043147 H         -525.7812 eV
Total Mermin free energy:          -19.3221043147 H         -525.7812 eV
Force related energy:              -19.3221043147 H         -525.7812 eV
Volume:                              0.100434E+05 au^3   0.148828E+04 A^3
MD Temperature:                      0.0037769181 H         1192.6550 K
MD Kinetic Energy:                   0.0226615087 H            0.6167 eV
Total MD Energy:                   -19.2994428059 H         -525.1646 eV
Pressure:                            0.112824E-04 au     0.331939E+09 Pa
Gibbs free energy including KE:    -19.2994428059 H         -525.1646 eV

--------------------------------------------------------------------------------

***  Geometry step: 48


Total Energy:                      -19.3221221907 H         -525.7817 eV
Extrapolated to 0:                 -19.3221221907 H         -525.7817 eV
Total Mermin free energy:          -19.3221221907 H         -525.7817 eV
Force related energy:              -19.3221221907 H         -525.7817 eV
Volume:                              0.100434E+05 au^3   0.148828E+04 A^3
MD Temperature:                      0.0037798971 H         1193.5957 K
MD Kinetic Energy:                   0.0226793826 H            0.6171 eV
Total MD Energy:                   -19.2994428081 H         -525.1646 eV
Pressure:                            0.111391E-04 au     0.327723E+09 Pa
Gibbs free energy including KE:    -19.2994428081 H         -525.1646 eV

--------------------------------------------------------------------------------

***  Geometry step: 49


Total Energy:                      -19.3221401060 H         -525.7822 eV
Extrapolated to 0:                 -19.3221401060 H         -525.7822 eV
Total Mermin free energy:          -19.3221401060 H         -525.7822 eV
Force related energy:              -19.3221401060 H         -525.7822 eV
Volume:                              0.100434E+05 au^3   0.148828E+04 A^3
MD Temperature:                      0.0037828826 H         1194.5384 K
MD Kinetic Energy:                   0.0226972957 H            0.6176 eV
Total MD Energy:                   -19.2994428103 H         -525.1646 eV
Pressure:                            0.109932E-04 au     0.323430E+09 Pa
Gibbs free energy including KE:    -19.2994428103 H         -525.1646 eV

--------------------------------------------------------------------------------

***  Geometry step: 50


Total Energy:                      -19.3221580211 H         -525.7827 eV
Extrapolated to 0:                 -19.3221580211 H         -525.7827 eV
Total Mermin free energy:          -19.3221580211 H         -525.7827 eV
Force related energy:              -19.3221580211 H         -525.7827 eV
Volume:                              0.100434E+05 au^3   0.148828E+04 A^3
MD Temperature:                      0.0037858681 H         1195.4812 K
MD Kinetic Energy:                   0.0227152085 H            0.6181 eV
Total MD Energy:                   -19.2994428126 H         -525.1646 eV
Pressure:                            0.108447E-04 au     0.319061E+09 Pa
Gibbs free energy including KE:    -19.2994428126 H         -525.1646 eV

--------------------------------------------------------------------------------

***  Geometry step: 51


Total Energy:                      -19.3221758954 H         -525.7832 eV
Extrapolated to 0:                 -19.3221758954 H         -525.7832 eV
Total Mermin free energy:          -19.3221758954 H         -525.7832 eV
Force related energy:              -19.3221758954 H         -525.7832 eV
Volume:                              0.100434E+05 au^3   0.148828E+04 A^3
MD Temperature:                      0.0037888467 H         1196.4217 K
MD Kinetic Energy:                   0.0227330804 H            0.6186 eV
Total MD Energy:                   -19.2994428150 H         -525.1646 eV
Pressure:                            0.106936E-04 au     0.314618E+09 Pa
Gibbs free energy including KE:    -19.2994428150 H         -525.1646 eV

--------------------------------------------------------------------------------

***  Geometry step: 52


Total Energy:                      -19.3221936871 H         -525.7836 eV
Extrapolated to 0:                 -19.3221936871 H         -525.7836 eV
Total Mermin free energy:          -19.3221936871 H         -525.7836 eV
Force related energy:              -19.3221936871 H         -525.7836 eV
Volume:                              0.100434E+05 au^3   0.148828E+04 A^3
MD Temperature:                      0.0037918116 H         1197.3580 K
MD Kinetic Energy:                   0.0227508697 H            0.6191 eV
Total MD Energy:                   -19.2994428174 H         -525.1646 eV
Pressure:                            0.105401E-04 au     0.310101E+09 Pa
Gibbs free energy including KE:    -19.2994428174 H         -525.1646 eV

--------------------------------------------------------------------------------

***  Geometry step: 53


Total Energy:                      -19.3222113533 H         -525.7841 eV
Extrapolated to 0:                 -19.3222113533 H         -525.7841 eV
Total Mermin free energy:          -19.3222113533 H         -525.7841 eV
Force related energy:              -19.3222113533 H         -525.7841 eV
Volume:                              0.100434E+05 au^3   0.148828E+04 A^3
MD Temperature:                      0.0037947556 H         1198.2876 K
MD Kinetic Energy:                   0.0227685334 H            0.6196 eV
Total MD Energy:                   -19.2994428199 H         -525.1646 eV
Pressure:                            0.103842E-04 au     0.305512E+09 Pa
Gibbs free energy including KE:    -19.2994428199 H         -525.1646 eV

--------------------------------------------------------------------------------

***  Geometry step: 54


Total Energy:                      -19.3222288501 H         -525.7846 eV
Extrapolated to 0:                 -19.3222288501 H         -525.7846 eV
Total Mermin free energy:          -19.3222288501 H         -525.7846 eV
Force related energy:              -19.3222288501 H         -525.7846 eV
Volume:                              0.100434E+05 au^3   0.148828E+04 A^3
MD Temperature:                      0.0037976713 H         1199.2083 K
MD Kinetic Energy:                   0.0227860276 H            0.6200 eV
Total MD Energy:                   -19.2994428224 H         -525.1646 eV
Pressure:                            0.102258E-04 au     0.300853E+09 Pa
Gibbs free energy including KE:    -19.2994428224 H         -525.1646 eV

--------------------------------------------------------------------------------

***  Geometry step: 55


Total Energy:                      -19.3222461324 H         -525.7851 eV
Extrapolated to 0:                 -19.3222461324 H         -525.7851 eV
Total Mermin free energy:          -19.3222461324 H         -525.7851 eV
Force related energy:              -19.3222461324 H         -525.7851 eV
Volume:                              0.100434E+05 au^3   0.148828E+04 A^3
MD Temperature:                      0.0038005512 H         1200.1177 K
MD Kinetic Energy:                   0.0228033073 H            0.6205 eV
Total MD Energy:                   -19.2994428251 H         -525.1646 eV
Pressure:                            0.100651E-04 au     0.296124E+09 Pa
Gibbs free energy including KE:    -19.2994428251 H         -525.1646 eV

--------------------------------------------------------------------------------

***  Geometry step: 56


Total Energy:                      -19.3222631542 H         -525.7855 eV
Extrapolated to 0:                 -19.3222631542 H         -525.7855 eV
Total Mermin free energy:          -19.3222631542 H         -525.7855 eV
Force related energy:              -19.3222631542 H         -525.7855 eV
Volume:                              0.100434E+05 au^3   0.148828E+04 A^3
MD Temperature:                      0.0038033877 H         1201.0134 K
MD Kinetic Energy:                   0.0228203264 H            0.6210 eV
Total MD Energy:                   -19.2994428277 H         -525.1646 eV
Pressure:                            0.990203E-05 au     0.291328E+09 Pa
Gibbs free energy including KE:    -19.2994428277 H         -525.1646 eV

--------------------------------------------------------------------------------

***  Geometry step: 57


Total Energy:                      -19.3222798686 H         -525.7860 eV
Extrapolated to 0:                 -19.3222798686 H         -525.7860 eV
Total Mermin free energy:          -19.3222798686 H         -525.7860 eV
Force related energy:              -19.3222798686 H         -525.7860 eV
Volume:                              0.100434E+05 au^3   0.148828E+04 A^3
MD Temperature:                      0.0038061730 H         1201.8929 K
MD Kinetic Energy:                   0.0228370381 H            0.6214 eV
Total MD Energy:                   -19.2994428305 H         -525.1646 eV
Pressure:                            0.973673E-05 au     0.286465E+09 Pa
Gibbs free energy including KE:    -19.2994428305 H         -525.1646 eV

--------------------------------------------------------------------------------

***  Geometry step: 58


Total Energy:                      -19.3222962277 H         -525.7864 eV
Extrapolated to 0:                 -19.3222962277 H         -525.7864 eV
Total Mermin free energy:          -19.3222962277 H         -525.7864 eV
Force related energy:              -19.3222962277 H         -525.7864 eV
Volume:                              0.100434E+05 au^3   0.148828E+04 A^3
MD Temperature:                      0.0038088991 H         1202.7538 K
MD Kinetic Energy:                   0.0228533945 H            0.6219 eV
Total MD Energy:                   -19.2994428333 H         -525.1646 eV
Pressure:                            0.956923E-05 au     0.281536E+09 Pa
Gibbs free energy including KE:    -19.2994428333 H         -525.1646 eV

--------------------------------------------------------------------------------

***  Geometry step: 59


Total Energy:                      -19.3223121830 H         -525.7869 eV
Extrapolated to 0:                 -19.3223121830 H         -525.7869 eV
Total Mermin free energy:          -19.3223121830 H         -525.7869 eV
Force related energy:              -19.3223121830 H         -525.7869 eV
Volume:                              0.100434E+05 au^3   0.148828E+04 A^3
MD Temperature:                      0.0038115578 H         1203.5933 K
MD Kinetic Energy:                   0.0228693469 H            0.6223 eV
Total MD Energy:                   -19.2994428361 H         -525.1646 eV
Pressure:                            0.939957E-05 au     0.276545E+09 Pa
Gibbs free energy including KE:    -19.2994428361 H         -525.1646 eV

--------------------------------------------------------------------------------

***  Geometry step: 60


Total Energy:                      -19.3223276848 H         -525.7873 eV
Extrapolated to 0:                 -19.3223276848 H         -525.7873 eV
Total Mermin free energy:          -19.3223276848 H         -525.7873 eV
Force related energy:              -19.3223276848 H         -525.7873 eV
Volume:                              0.100434E+05 au^3   0.148828E+04 A^3
MD Temperature:                      0.0038141410 H         1204.4090 K
MD Kinetic Energy:                   0.0228848459 H            0.6227 eV
Total MD Energy:                   -19.2994428390 H         -525.1646 eV
Pressure:                            0.922780E-05 au     0.271491E+09 Pa
Gibbs free energy including KE:    -19.2994428390 H         -525.1646 eV

--------------------------------------------------------------------------------

***  Geometry step: 61


Total Energy:                      -19.3223426832 H         -525.7877 eV
Extrapolated to 0:                 -19.3223426832 H         -525.7877 eV
Total Mermin free energy:          -19.3223426832 H         -525.7877 eV
Force related energy:              -19.3223426832 H         -525.7877 eV
Volume:                              0.100434E+05 au^3   0.148828E+04 A^3
MD Temperature:                      0.0038166402 H         1205.1982 K
MD Kinetic Energy:                   0.0228998413 H            0.6231 eV
Total MD Energy:                   -19.2994428419 H         -525.1646 eV
Pressure:                            0.905397E-05 au     0.266377E+09 Pa
Gibbs free energy including KE:    -19.2994428419 H         -525.1646 eV

--------------------------------------------------------------------------------

***  Geometry step: 62


Total Energy:                      -19.3223571273 H         -525.7881 eV
Extrapolated to 0:                 -19.3223571273 H         -525.7881 eV
Total Mermin free energy:          -19.3223571273 H         -525.7881 eV
Force related energy:              -19.3223571273 H         -525.7881 eV
Volume:                              0.100434E+05 au^3   0.148828E+04 A^3
MD Temperature:                      0.0038190471 H         1205.9582 K
MD Kinetic Energy:                   0.0229142824 H            0.6235 eV
Total MD Energy:                   -19.2994428448 H         -525.1646 eV
Pressure:                            0.887814E-05 au     0.261204E+09 Pa
Gibbs free energy including KE:    -19.2994428448 H         -525.1646 eV

--------------------------------------------------------------------------------

***  Geometry step: 63


Total Energy:                      -19.3223709657 H         -525.7885 eV
Extrapolated to 0:                 -19.3223709657 H         -525.7885 eV
Total Mermin free energy:          -19.3223709657 H         -525.7885 eV
Force related energy:              -19.3223709657 H         -525.7885 eV
Volume:                              0.100434E+05 au^3   0.148828E+04 A^3
MD Temperature:                      0.0038213530 H         1206.6864 K
MD Kinetic Energy:                   0.0229281178 H            0.6239 eV
Total MD Energy:                   -19.2994428479 H         -525.1646 eV
Pressure:                            0.870035E-05 au     0.255973E+09 Pa
Gibbs free energy including KE:    -19.2994428479 H         -525.1646 eV

--------------------------------------------------------------------------------

***  Geometry step: 64


Total Energy:                      -19.3223841460 H         -525.7888 eV
Extrapolated to 0:                 -19.3223841460 H         -525.7888 eV
Total Mermin free energy:          -19.3223841460 H         -525.7888 eV
Force related energy:              -19.3223841460 H         -525.7888 eV
Volume:                              0.100434E+05 au^3   0.148828E+04 A^3
MD Temperature:                      0.0038235492 H         1207.3799 K
MD Kinetic Energy:                   0.0229412950 H            0.6243 eV
Total MD Energy:                   -19.2994428509 H         -525.1646 eV
Pressure:                            0.852061E-05 au     0.250685E+09 Pa
Gibbs free energy including KE:    -19.2994428509 H         -525.1646 eV

--------------------------------------------------------------------------------

***  Geometry step: 65


Total Energy:                      -19.3223966150 H         -525.7892 eV
Extrapolated to 0:                 -19.3223966150 H         -525.7892 eV
Total Mermin free energy:          -19.3223966150 H         -525.7892 eV
Force related energy:              -19.3223966150 H         -525.7892 eV
Volume:                              0.100434E+05 au^3   0.148828E+04 A^3
MD Temperature:                      0.0038256268 H         1208.0360 K
MD Kinetic Energy:                   0.0229537609 H            0.6246 eV
Total MD Energy:                   -19.2994428540 H         -525.1646 eV
Pressure:                            0.833899E-05 au     0.245341E+09 Pa
Gibbs free energy including KE:    -19.2994428540 H         -525.1646 eV

--------------------------------------------------------------------------------

***  Geometry step: 66


Total Energy:                      -19.3224083191 H         -525.7895 eV
Extrapolated to 0:                 -19.3224083191 H         -525.7895 eV
Total Mermin free energy:          -19.3224083191 H         -525.7895 eV
Force related energy:              -19.3224083191 H         -525.7895 eV
Volume:                              0.100434E+05 au^3   0.148828E+04 A^3
MD Temperature:                      0.0038275770 H         1208.6518 K
MD Kinetic Energy:                   0.0229654619 H            0.6249 eV
Total MD Energy:                   -19.2994428572 H         -525.1646 eV
Pressure:                            0.815552E-05 au     0.239944E+09 Pa
Gibbs free energy including KE:    -19.2994428572 H         -525.1646 eV

--------------------------------------------------------------------------------

***  Geometry step: 67


Total Energy:                      -19.3224192046 H         -525.7898 eV
Extrapolated to 0:                 -19.3224192046 H         -525.7898 eV
Total Mermin free energy:          -19.3224192046 H         -525.7898 eV
Force related energy:              -19.3224192046 H         -525.7898 eV
Volume:                              0.100434E+05 au^3   0.148828E+04 A^3
MD Temperature:                      0.0038293907 H         1209.2245 K
MD Kinetic Energy:                   0.0229763443 H            0.6252 eV
Total MD Energy:                   -19.2994428603 H         -525.1646 eV
Pressure:                            0.797028E-05 au     0.234494E+09 Pa
Gibbs free energy including KE:    -19.2994428603 H         -525.1646 eV

--------------------------------------------------------------------------------

***  Geometry step: 68


Total Energy:                      -19.3224292176 H         -525.7901 eV
Extrapolated to 0:                 -19.3224292176 H         -525.7901 eV
Total Mermin free energy:          -19.3224292176 H         -525.7901 eV
Force related energy:              -19.3224292176 H         -525.7901 eV
Volume:                              0.100434E+05 au^3   0.148828E+04 A^3
MD Temperature:                      0.0038310590 H         1209.7513 K
MD Kinetic Energy:                   0.0229863542 H            0.6255 eV
Total MD Energy:                   -19.2994428634 H         -525.1646 eV
Pressure:                            0.778332E-05 au     0.228993E+09 Pa
Gibbs free energy including KE:    -19.2994428634 H         -525.1646 eV

--------------------------------------------------------------------------------

***  Geometry step: 69


Total Energy:                      -19.3224383041 H         -525.7903 eV
Extrapolated to 0:                 -19.3224383041 H         -525.7903 eV
Total Mermin free energy:          -19.3224383041 H         -525.7903 eV
Force related energy:              -19.3224383041 H         -525.7903 eV
Volume:                              0.100434E+05 au^3   0.148828E+04 A^3
MD Temperature:                      0.0038325729 H         1210.2294 K
MD Kinetic Energy:                   0.0229954375 H            0.6257 eV
Total MD Energy:                   -19.2994428665 H         -525.1646 eV
Pressure:                            0.759468E-05 au     0.223443E+09 Pa
Gibbs free energy including KE:    -19.2994428665 H         -525.1646 eV

--------------------------------------------------------------------------------

***  Geometry step: 70


Total Energy:                      -19.3224464101 H         -525.7905 eV
Extrapolated to 0:                 -19.3224464101 H         -525.7905 eV
Total Mermin free energy:          -19.3224464101 H         -525.7905 eV
Force related energy:              -19.3224464101 H         -525.7905 eV
Volume:                              0.100434E+05 au^3   0.148828E+04 A^3
MD Temperature:                      0.0038339234 H         1210.6558 K
MD Kinetic Energy:                   0.0230035404 H            0.6260 eV
Total MD Energy:                   -19.2994428697 H         -525.1646 eV
Pressure:                            0.740441E-05 au     0.217845E+09 Pa
Gibbs free energy including KE:    -19.2994428697 H         -525.1646 eV

--------------------------------------------------------------------------------

***  Geometry step: 71


Total Energy:                      -19.3224534815 H         -525.7907 eV
Extrapolated to 0:                 -19.3224534815 H         -525.7907 eV
Total Mermin free energy:          -19.3224534815 H         -525.7907 eV
Force related energy:              -19.3224534815 H         -525.7907 eV
Volume:                              0.100434E+05 au^3   0.148828E+04 A^3
MD Temperature:                      0.0038351015 H         1211.0278 K
MD Kinetic Energy:                   0.0230106087 H            0.6262 eV
Total MD Energy:                   -19.2994428728 H         -525.1646 eV
Pressure:                            0.721258E-05 au     0.212201E+09 Pa
Gibbs free energy including KE:    -19.2994428728 H         -525.1646 eV

--------------------------------------------------------------------------------

***  Geometry step: 72


Total Energy:                      -19.3224594647 H         -525.7909 eV
Extrapolated to 0:                 -19.3224594647 H         -525.7909 eV
Total Mermin free energy:          -19.3224594647 H         -525.7909 eV
Force related energy:              -19.3224594647 H         -525.7909 eV
Volume:                              0.100434E+05 au^3   0.148828E+04 A^3
MD Temperature:                      0.0038360981 H         1211.3425 K
MD Kinetic Energy:                   0.0230165888 H            0.6263 eV
Total MD Energy:                   -19.2994428759 H         -525.1646 eV
Pressure:                            0.701922E-05 au     0.206513E+09 Pa
Gibbs free energy including KE:    -19.2994428759 H         -525.1646 eV

--------------------------------------------------------------------------------

***  Geometry step: 73


Total Energy:                      -19.3224643061 H         -525.7910 eV
Extrapolated to 0:                 -19.3224643061 H         -525.7910 eV
Total Mermin free energy:          -19.3224643061 H         -525.7910 eV
Force related energy:              -19.3224643061 H         -525.7910 eV
Volume:                              0.100434E+05 au^3   0.148828E+04 A^3
MD Temperature:                      0.0038369045 H         1211.5972 K
MD Kinetic Energy:                   0.0230214271 H            0.6264 eV
Total MD Energy:                   -19.2994428790 H         -525.1646 eV
Pressure:                            0.682441E-05 au     0.200781E+09 Pa
Gibbs free energy including KE:    -19.2994428790 H         -525.1646 eV

--------------------------------------------------------------------------------

***  Geometry step: 74


Total Energy:                      -19.3224679528 H         -525.7911 eV
Extrapolated to 0:                 -19.3224679528 H         -525.7911 eV
Total Mermin free energy:          -19.3224679528 H         -525.7911 eV
Force related energy:              -19.3224679528 H         -525.7911 eV
Volume:                              0.100434E+05 au^3   0.148828E+04 A^3
MD Temperature:                      0.0038375118 H         1211.7889 K
MD Kinetic Energy:                   0.0230250708 H            0.6265 eV
Total MD Energy:                   -19.2994428820 H         -525.1646 eV
Pressure:                            0.662821E-05 au     0.195009E+09 Pa
Gibbs free energy including KE:    -19.2994428820 H         -525.1646 eV

--------------------------------------------------------------------------------

***  Geometry step: 75


Total Energy:                      -19.3224703524 H         -525.7912 eV
Extrapolated to 0:                 -19.3224703524 H         -525.7912 eV
Total Mermin free energy:          -19.3224703524 H         -525.7912 eV
Force related energy:              -19.3224703524 H         -525.7912 eV
Volume:                              0.100434E+05 au^3   0.148828E+04 A^3
MD Temperature:                      0.0038379112 H         1211.9151 K
MD Kinetic Energy:                   0.0230274675 H            0.6266 eV
Total MD Energy:                   -19.2994428850 H         -525.1646 eV
Pressure:                            0.643067E-05 au     0.189197E+09 Pa
Gibbs free energy including KE:    -19.2994428850 H         -525.1646 eV

--------------------------------------------------------------------------------

***  Geometry step: 76


Total Energy:                      -19.3224714532 H         -525.7912 eV
Extrapolated to 0:                 -19.3224714532 H         -525.7912 eV
Total Mermin free energy:          -19.3224714532 H         -525.7912 eV
Force related energy:              -19.3224714532 H         -525.7912 eV
Volume:                              0.100434E+05 au^3   0.148828E+04 A^3
MD Temperature:                      0.0038380942 H         1211.9728 K
MD Kinetic Energy:                   0.0230285653 H            0.6266 eV
Total MD Energy:                   -19.2994428879 H         -525.1646 eV
Pressure:                            0.623185E-05 au     0.183347E+09 Pa
Gibbs free energy including KE:    -19.2994428879 H         -525.1646 eV

--------------------------------------------------------------------------------

***  Geometry step: 77


Total Energy:                      -19.3224712041 H         -525.7912 eV
Extrapolated to 0:                 -19.3224712041 H         -525.7912 eV
Total Mermin free energy:          -19.3224712041 H         -525.7912 eV
Force related energy:              -19.3224712041 H         -525.7912 eV
Volume:                              0.100434E+05 au^3   0.148828E+04 A^3
MD Temperature:                      0.0038380522 H         1211.9596 K
MD Kinetic Energy:                   0.0230283133 H            0.6266 eV
Total MD Energy:                   -19.2994428908 H         -525.1646 eV
Pressure:                            0.603182E-05 au     0.177462E+09 Pa
Gibbs free energy including KE:    -19.2994428908 H         -525.1646 eV

--------------------------------------------------------------------------------

***  Geometry step: 78


Total Energy:                      -19.3224695549 H         -525.7911 eV
Extrapolated to 0:                 -19.3224695549 H         -525.7911 eV
Total Mermin free energy:          -19.3224695549 H         -525.7911 eV
Force related energy:              -19.3224695549 H         -525.7911 eV
Volume:                              0.100434E+05 au^3   0.148828E+04 A^3
MD Temperature:                      0.0038377769 H         1211.8726 K
MD Kinetic Energy:                   0.0230266612 H            0.6266 eV
Total MD Energy:                   -19.2994428936 H         -525.1646 eV
Pressure:                            0.583063E-05 au     0.171543E+09 Pa
Gibbs free energy including KE:    -19.2994428936 H         -525.1646 eV

--------------------------------------------------------------------------------

***  Geometry step: 79


Total Energy:                      -19.3224664564 H         -525.7911 eV
Extrapolated to 0:                 -19.3224664564 H         -525.7911 eV
Total Mermin free energy:          -19.3224664564 H         -525.7911 eV
Force related energy:              -19.3224664564 H         -525.7911 eV
Volume:                              0.100434E+05 au^3   0.148828E+04 A^3
MD Temperature:                      0.0038372600 H         1211.7094 K
MD Kinetic Energy:                   0.0230235600 H            0.6265 eV
Total MD Energy:                   -19.2994428964 H         -525.1646 eV
Pressure:                            0.562833E-05 au     0.165591E+09 Pa
Gibbs free energy including KE:    -19.2994428964 H         -525.1646 eV

--------------------------------------------------------------------------------

***  Geometry step: 80


Total Energy:                      -19.3224618603 H         -525.7909 eV
Extrapolated to 0:                 -19.3224618603 H         -525.7909 eV
Total Mermin free energy:          -19.3224618603 H         -525.7909 eV
Force related energy:              -19.3224618603 H         -525.7909 eV
Volume:                              0.100434E+05 au^3   0.148828E+04 A^3
MD Temperature:                      0.0038364935 H         1211.4674 K
MD Kinetic Energy:                   0.0230189612 H            0.6264 eV
Total MD Energy:                   -19.2994428991 H         -525.1646 eV
Pressure:                            0.542500E-05 au     0.159609E+09 Pa
Gibbs free energy including KE:    -19.2994428991 H         -525.1646 eV

--------------------------------------------------------------------------------

***  Geometry step: 81


Total Energy:                      -19.3224557195 H         -525.7908 eV
Extrapolated to 0:                 -19.3224557195 H         -525.7908 eV
Total Mermin free energy:          -19.3224557195 H         -525.7908 eV
Force related energy:              -19.3224557195 H         -525.7908 eV
Volume:                              0.100434E+05 au^3   0.148828E+04 A^3
MD Temperature:                      0.0038354696 H         1211.1441 K
MD Kinetic Energy:                   0.0230128178 H            0.6262 eV
Total MD Energy:                   -19.2994429017 H         -525.1646 eV
Pressure:                            0.522068E-05 au     0.153598E+09 Pa
Gibbs free energy including KE:    -19.2994429017 H         -525.1646 eV

--------------------------------------------------------------------------------

***  Geometry step: 82


Total Energy:                      -19.3224479881 H         -525.7906 eV
Extrapolated to 0:                 -19.3224479881 H         -525.7906 eV
Total Mermin free energy:          -19.3224479881 H         -525.7906 eV
Force related energy:              -19.3224479881 H         -525.7906 eV
Volume:                              0.100434E+05 au^3   0.148828E+04 A^3
MD Temperature:                      0.0038341806 H         1210.7370 K
MD Kinetic Energy:                   0.0230050839 H            0.6260 eV
Total MD Energy:                   -19.2994429043 H         -525.1646 eV
Pressure:                            0.501544E-05 au     0.147559E+09 Pa
Gibbs free energy including KE:    -19.2994429043 H         -525.1646 eV

--------------------------------------------------------------------------------

***  Geometry step: 83


Total Energy:                      -19.3224386215 H         -525.7903 eV
Extrapolated to 0:                 -19.3224386215 H         -525.7903 eV
Total Mermin free energy:          -19.3224386215 H         -525.7903 eV
Force related energy:              -19.3224386215 H         -525.7903 eV
Volume:                              0.100434E+05 au^3   0.148828E+04 A^3
MD Temperature:                      0.0038326191 H         1210.2440 K
MD Kinetic Energy:                   0.0229957148 H            0.6257 eV
Total MD Energy:                   -19.2994429067 H         -525.1646 eV
Pressure:                            0.480934E-05 au     0.141496E+09 Pa
Gibbs free energy including KE:    -19.2994429067 H         -525.1646 eV

--------------------------------------------------------------------------------

***  Geometry step: 84


Total Energy:                      -19.3224275764 H         -525.7900 eV
Extrapolated to 0:                 -19.3224275764 H         -525.7900 eV
Total Mermin free energy:          -19.3224275764 H         -525.7900 eV
Force related energy:              -19.3224275764 H         -525.7900 eV
Volume:                              0.100434E+05 au^3   0.148828E+04 A^3
MD Temperature:                      0.0038307779 H         1209.6625 K
MD Kinetic Energy:                   0.0229846674 H            0.6254 eV
Total MD Energy:                   -19.2994429091 H         -525.1646 eV
Pressure:                            0.460244E-05 au     0.135409E+09 Pa
Gibbs free energy including KE:    -19.2994429091 H         -525.1646 eV

--------------------------------------------------------------------------------

***  Geometry step: 85


Total Energy:                      -19.3224148112 H         -525.7897 eV
Extrapolated to 0:                 -19.3224148112 H         -525.7897 eV
Total Mermin free energy:          -19.3224148112 H         -525.7897 eV
Force related energy:              -19.3224148112 H         -525.7897 eV
Volume:                              0.100434E+05 au^3   0.148828E+04 A^3
MD Temperature:                      0.0038286500 H         1208.9906 K
MD Kinetic Energy:                   0.0229718999 H            0.6251 eV
Total MD Energy:                   -19.2994429113 H         -525.1646 eV
Pressure:                            0.439480E-05 au     0.129299E+09 Pa
Gibbs free energy including KE:    -19.2994429113 H         -525.1646 eV

--------------------------------------------------------------------------------

***  Geometry step: 86


Total Energy:                      -19.3224002855 H         -525.7893 eV
Extrapolated to 0:                 -19.3224002855 H         -525.7893 eV
Total Mermin free energy:          -19.3224002855 H         -525.7893 eV
Force related energy:              -19.3224002855 H         -525.7893 eV
Volume:                              0.100434E+05 au^3   0.148828E+04 A^3
MD Temperature:                      0.0038262287 H         1208.2260 K
MD Kinetic Energy:                   0.0229573720 H            0.6247 eV
Total MD Energy:                   -19.2994429135 H         -525.1646 eV
Pressure:                            0.418646E-05 au     0.123170E+09 Pa
Gibbs free energy including KE:    -19.2994429135 H         -525.1646 eV

--------------------------------------------------------------------------------

***  Geometry step: 87


Total Energy:                      -19.3223839607 H         -525.7888 eV
Extrapolated to 0:                 -19.3223839607 H         -525.7888 eV
Total Mermin free energy:          -19.3223839607 H         -525.7888 eV
Force related energy:              -19.3223839607 H         -525.7888 eV
Volume:                              0.100434E+05 au^3   0.148828E+04 A^3
MD Temperature:                      0.0038235075 H         1207.3667 K
MD Kinetic Energy:                   0.0229410452 H            0.6243 eV
Total MD Energy:                   -19.2994429156 H         -525.1646 eV
Pressure:                            0.397749E-05 au     0.117022E+09 Pa
Gibbs free energy including KE:    -19.2994429156 H         -525.1646 eV

--------------------------------------------------------------------------------

***  Geometry step: 88


Total Energy:                      -19.3223657996 H         -525.7883 eV
Extrapolated to 0:                 -19.3223657996 H         -525.7883 eV
Total Mermin free energy:          -19.3223657996 H         -525.7883 eV
Force related energy:              -19.3223657996 H         -525.7883 eV
Volume:                              0.100434E+05 au^3   0.148828E+04 A^3
MD Temperature:                      0.0038204803 H         1206.4108 K
MD Kinetic Energy:                   0.0229228820 H            0.6238 eV
Total MD Energy:                   -19.2994429176 H         -525.1646 eV
Pressure:                            0.376792E-05 au     0.110856E+09 Pa
Gibbs free energy including KE:    -19.2994429176 H         -525.1646 eV

--------------------------------------------------------------------------------

***  Geometry step: 89


Total Energy:                      -19.3223457664 H         -525.7878 eV
Extrapolated to 0:                 -19.3223457664 H         -525.7878 eV
Total Mermin free energy:          -19.3223457664 H         -525.7878 eV
Force related energy:              -19.3223457664 H         -525.7878 eV
Volume:                              0.100434E+05 au^3   0.148828E+04 A^3
MD Temperature:                      0.0038171412 H         1205.3564 K
MD Kinetic Energy:                   0.0229028470 H            0.6232 eV
Total MD Energy:                   -19.2994429194 H         -525.1646 eV
Pressure:                            0.355780E-05 au     0.104674E+09 Pa
Gibbs free energy including KE:    -19.2994429194 H         -525.1646 eV

--------------------------------------------------------------------------------

***  Geometry step: 90


Total Energy:                      -19.3223238275 H         -525.7872 eV
Extrapolated to 0:                 -19.3223238275 H         -525.7872 eV
Total Mermin free energy:          -19.3223238275 H         -525.7872 eV
Force related energy:              -19.3223238275 H         -525.7872 eV
Volume:                              0.100434E+05 au^3   0.148828E+04 A^3
MD Temperature:                      0.0038134844 H         1204.2017 K
MD Kinetic Energy:                   0.0228809063 H            0.6226 eV
Total MD Energy:                   -19.2994429212 H         -525.1646 eV
Pressure:                            0.334720E-05 au     0.984780E+08 Pa
Gibbs free energy including KE:    -19.2994429212 H         -525.1646 eV

--------------------------------------------------------------------------------

***  Geometry step: 91


Total Energy:                      -19.3222999510 H         -525.7865 eV
Extrapolated to 0:                 -19.3222999510 H         -525.7865 eV
Total Mermin free energy:          -19.3222999510 H         -525.7865 eV
Force related energy:              -19.3222999510 H         -525.7865 eV
Volume:                              0.100434E+05 au^3   0.148828E+04 A^3
MD Temperature:                      0.0038095047 H         1202.9450 K
MD Kinetic Energy:                   0.0228570282 H            0.6220 eV
Total MD Energy:                   -19.2994429228 H         -525.1646 eV
Pressure:                            0.313618E-05 au     0.922697E+08 Pa
Gibbs free energy including KE:    -19.2994429228 H         -525.1646 eV

--------------------------------------------------------------------------------

***  Geometry step: 92


Total Energy:                      -19.3222741074 H         -525.7858 eV
Extrapolated to 0:                 -19.3222741074 H         -525.7858 eV
Total Mermin free energy:          -19.3222741074 H         -525.7858 eV
Force related energy:              -19.3222741074 H         -525.7858 eV
Volume:                              0.100434E+05 au^3   0.148828E+04 A^3
[...]
Extrapolated to 0:                 -19.3208678706 H         -525.7476 eV
Total Mermin free energy:          -19.3208678706 H         -525.7476 eV
Force related energy:              -19.3208678706 H         -525.7476 eV
Volume:                              0.100434E+05 au^3   0.148828E+04 A^3
MD Temperature:                      0.0035708529 H         1127.5848 K
MD Kinetic Energy:                   0.0214251176 H            0.5830 eV
Total MD Energy:                   -19.2994427530 H         -525.1646 eV
Pressure:                           -0.977769E-05 au    -0.287670E+09 Pa
Gibbs free energy including KE:    -19.2994427530 H         -525.1646 eV

--------------------------------------------------------------------------------

***  Geometry step: 979


Total Energy:                      -19.3207629659 H         -525.7447 eV
Extrapolated to 0:                 -19.3207629659 H         -525.7447 eV
Total Mermin free energy:          -19.3207629659 H         -525.7447 eV
Force related energy:              -19.3207629659 H         -525.7447 eV
Volume:                              0.100434E+05 au^3   0.148828E+04 A^3
MD Temperature:                      0.0035533695 H         1122.0640 K
MD Kinetic Energy:                   0.0213202172 H            0.5802 eV
Total MD Energy:                   -19.2994427487 H         -525.1646 eV
Pressure:                           -0.988188E-05 au    -0.290735E+09 Pa
Gibbs free energy including KE:    -19.2994427487 H         -525.1646 eV

--------------------------------------------------------------------------------

***  Geometry step: 980


Total Energy:                      -19.3206586040 H         -525.7419 eV
Extrapolated to 0:                 -19.3206586040 H         -525.7419 eV
Total Mermin free energy:          -19.3206586040 H         -525.7419 eV
Force related energy:              -19.3206586040 H         -525.7419 eV
Volume:                              0.100434E+05 au^3   0.148828E+04 A^3
MD Temperature:                      0.0035359766 H         1116.5718 K
MD Kinetic Energy:                   0.0212158595 H            0.5773 eV
Total MD Energy:                   -19.2994427445 H         -525.1646 eV
Pressure:                           -0.998383E-05 au    -0.293734E+09 Pa
Gibbs free energy including KE:    -19.2994427445 H         -525.1646 eV

--------------------------------------------------------------------------------

***  Geometry step: 981


Total Energy:                      -19.3205548515 H         -525.7390 eV
Extrapolated to 0:                 -19.3205548515 H         -525.7390 eV
Total Mermin free energy:          -19.3205548515 H         -525.7390 eV
Force related energy:              -19.3205548515 H         -525.7390 eV
Volume:                              0.100434E+05 au^3   0.148828E+04 A^3
MD Temperature:                      0.0035186852 H         1111.1116 K
MD Kinetic Energy:                   0.0211121112 H            0.5745 eV
Total MD Energy:                   -19.2994427403 H         -525.1646 eV
Pressure:                           -0.100835E-04 au    -0.296667E+09 Pa
Gibbs free energy including KE:    -19.2994427403 H         -525.1646 eV

--------------------------------------------------------------------------------

***  Geometry step: 982


Total Energy:                      -19.3204517741 H         -525.7362 eV
Extrapolated to 0:                 -19.3204517741 H         -525.7362 eV
Total Mermin free energy:          -19.3204517741 H         -525.7362 eV
Force related energy:              -19.3204517741 H         -525.7362 eV
Volume:                              0.100434E+05 au^3   0.148828E+04 A^3
MD Temperature:                      0.0035015063 H         1105.6869 K
MD Kinetic Energy:                   0.0210090379 H            0.5717 eV
Total MD Energy:                   -19.2994427363 H         -525.1646 eV
Pressure:                           -0.101809E-04 au    -0.299533E+09 Pa
Gibbs free energy including KE:    -19.2994427363 H         -525.1646 eV

--------------------------------------------------------------------------------

***  Geometry step: 983


Total Energy:                      -19.3203494363 H         -525.7335 eV
Extrapolated to 0:                 -19.3203494363 H         -525.7335 eV
Total Mermin free energy:          -19.3203494363 H         -525.7335 eV
Force related energy:              -19.3203494363 H         -525.7335 eV
Volume:                              0.100434E+05 au^3   0.148828E+04 A^3
MD Temperature:                      0.0034844507 H         1100.3012 K
MD Kinetic Energy:                   0.0209067041 H            0.5689 eV
Total MD Energy:                   -19.2994427322 H         -525.1646 eV
Pressure:                           -0.102761E-04 au    -0.302333E+09 Pa
Gibbs free energy including KE:    -19.2994427322 H         -525.1646 eV

--------------------------------------------------------------------------------

***  Geometry step: 984


Total Energy:                      -19.3202479015 H         -525.7307 eV
Extrapolated to 0:                 -19.3202479015 H         -525.7307 eV
Total Mermin free energy:          -19.3202479015 H         -525.7307 eV
Force related energy:              -19.3202479015 H         -525.7307 eV
Volume:                              0.100434E+05 au^3   0.148828E+04 A^3
MD Temperature:                      0.0034675289 H         1094.9577 K
MD Kinetic Energy:                   0.0208051733 H            0.5661 eV
Total MD Energy:                   -19.2994427283 H         -525.1646 eV
Pressure:                           -0.103690E-04 au    -0.305065E+09 Pa
Gibbs free energy including KE:    -19.2994427283 H         -525.1646 eV

--------------------------------------------------------------------------------

***  Geometry step: 985


Total Energy:                      -19.3201472323 H         -525.7280 eV
Extrapolated to 0:                 -19.3201472323 H         -525.7280 eV
Total Mermin free energy:          -19.3201472323 H         -525.7280 eV
Force related energy:              -19.3201472323 H         -525.7280 eV
Volume:                              0.100434E+05 au^3   0.148828E+04 A^3
MD Temperature:                      0.0034507513 H         1089.6598 K
MD Kinetic Energy:                   0.0207045079 H            0.5634 eV
Total MD Energy:                   -19.2994427244 H         -525.1646 eV
Pressure:                           -0.104595E-04 au    -0.307730E+09 Pa
Gibbs free energy including KE:    -19.2994427244 H         -525.1646 eV

--------------------------------------------------------------------------------

***  Geometry step: 986


Total Energy:                      -19.3200474899 H         -525.7252 eV
Extrapolated to 0:                 -19.3200474899 H         -525.7252 eV
Total Mermin free energy:          -19.3200474899 H         -525.7252 eV
Force related energy:              -19.3200474899 H         -525.7252 eV
Volume:                              0.100434E+05 au^3   0.148828E+04 A^3
MD Temperature:                      0.0034341282 H         1084.4106 K
MD Kinetic Energy:                   0.0206047693 H            0.5607 eV
Total MD Energy:                   -19.2994427206 H         -525.1646 eV
Pressure:                           -0.105478E-04 au    -0.310328E+09 Pa
Gibbs free energy including KE:    -19.2994427206 H         -525.1646 eV

--------------------------------------------------------------------------------

***  Geometry step: 987


Total Energy:                      -19.3199487345 H         -525.7226 eV
Extrapolated to 0:                 -19.3199487345 H         -525.7226 eV
Total Mermin free energy:          -19.3199487345 H         -525.7226 eV
Force related energy:              -19.3199487345 H         -525.7226 eV
Volume:                              0.100434E+05 au^3   0.148828E+04 A^3
MD Temperature:                      0.0034176696 H         1079.2134 K
MD Kinetic Energy:                   0.0205060176 H            0.5580 eV
Total MD Energy:                   -19.2994427169 H         -525.1646 eV
Pressure:                           -0.106338E-04 au    -0.312858E+09 Pa
Gibbs free energy including KE:    -19.2994427169 H         -525.1646 eV

--------------------------------------------------------------------------------

***  Geometry step: 988


Total Energy:                      -19.3198510251 H         -525.7199 eV
Extrapolated to 0:                 -19.3198510251 H         -525.7199 eV
Total Mermin free energy:          -19.3198510251 H         -525.7199 eV
Force related energy:              -19.3198510251 H         -525.7199 eV
Volume:                              0.100434E+05 au^3   0.148828E+04 A^3
MD Temperature:                      0.0034013853 H         1074.0712 K
MD Kinetic Energy:                   0.0204083118 H            0.5553 eV
Total MD Energy:                   -19.2994427133 H         -525.1646 eV
Pressure:                           -0.107175E-04 au    -0.315321E+09 Pa
Gibbs free energy including KE:    -19.2994427133 H         -525.1646 eV

--------------------------------------------------------------------------------

***  Geometry step: 989


Total Energy:                      -19.3197544196 H         -525.7173 eV
Extrapolated to 0:                 -19.3197544196 H         -525.7173 eV
Total Mermin free energy:          -19.3197544196 H         -525.7173 eV
Force related energy:              -19.3197544196 H         -525.7173 eV
Volume:                              0.100434E+05 au^3   0.148828E+04 A^3
MD Temperature:                      0.0033852850 H         1068.9872 K
MD Kinetic Energy:                   0.0203117099 H            0.5527 eV
Total MD Energy:                   -19.2994427097 H         -525.1646 eV
Pressure:                           -0.107989E-04 au    -0.317715E+09 Pa
Gibbs free energy including KE:    -19.2994427097 H         -525.1646 eV

--------------------------------------------------------------------------------

***  Geometry step: 990


Total Energy:                      -19.3196589745 H         -525.7147 eV
Extrapolated to 0:                 -19.3196589745 H         -525.7147 eV
Total Mermin free energy:          -19.3196589745 H         -525.7147 eV
Force related energy:              -19.3196589745 H         -525.7147 eV
Volume:                              0.100434E+05 au^3   0.148828E+04 A^3
MD Temperature:                      0.0033693781 H         1063.9642 K
MD Kinetic Energy:                   0.0202162683 H            0.5501 eV
Total MD Energy:                   -19.2994427062 H         -525.1646 eV
Pressure:                           -0.108780E-04 au    -0.320042E+09 Pa
Gibbs free energy including KE:    -19.2994427062 H         -525.1646 eV

--------------------------------------------------------------------------------

***  Geometry step: 991


Total Energy:                      -19.3195647454 H         -525.7121 eV
Extrapolated to 0:                 -19.3195647454 H         -525.7121 eV
Total Mermin free energy:          -19.3195647454 H         -525.7121 eV
Force related energy:              -19.3195647454 H         -525.7121 eV
Volume:                              0.100434E+05 au^3   0.148828E+04 A^3
MD Temperature:                      0.0033536738 H         1059.0052 K
MD Kinetic Energy:                   0.0201220426 H            0.5475 eV
Total MD Energy:                   -19.2994427028 H         -525.1646 eV
Pressure:                           -0.109548E-04 au    -0.322300E+09 Pa
Gibbs free energy including KE:    -19.2994427028 H         -525.1646 eV

--------------------------------------------------------------------------------

***  Geometry step: 992


Total Energy:                      -19.3194717863 H         -525.7096 eV
Extrapolated to 0:                 -19.3194717863 H         -525.7096 eV
Total Mermin free energy:          -19.3194717863 H         -525.7096 eV
Force related energy:              -19.3194717863 H         -525.7096 eV
Volume:                              0.100434E+05 au^3   0.148828E+04 A^3
MD Temperature:                      0.0033381811 H         1054.1130 K
MD Kinetic Energy:                   0.0200290868 H            0.5450 eV
Total MD Energy:                   -19.2994426995 H         -525.1646 eV
Pressure:                           -0.110292E-04 au    -0.324490E+09 Pa
Gibbs free energy including KE:    -19.2994426995 H         -525.1646 eV

--------------------------------------------------------------------------------

***  Geometry step: 993


Total Energy:                      -19.3193801500 H         -525.7071 eV
Extrapolated to 0:                 -19.3193801500 H         -525.7071 eV
Total Mermin free energy:          -19.3193801500 H         -525.7071 eV
Force related energy:              -19.3193801500 H         -525.7071 eV
Volume:                              0.100434E+05 au^3   0.148828E+04 A^3
MD Temperature:                      0.0033229090 H         1049.2904 K
MD Kinetic Energy:                   0.0199374538 H            0.5425 eV
Total MD Energy:                   -19.2994426962 H         -525.1646 eV
Pressure:                           -0.111013E-04 au    -0.326611E+09 Pa
Gibbs free energy including KE:    -19.2994426962 H         -525.1646 eV

--------------------------------------------------------------------------------

***  Geometry step: 994


Total Energy:                      -19.3192898882 H         -525.7046 eV
Extrapolated to 0:                 -19.3192898882 H         -525.7046 eV
Total Mermin free energy:          -19.3192898882 H         -525.7046 eV
Force related energy:              -19.3192898882 H         -525.7046 eV
Volume:                              0.100434E+05 au^3   0.148828E+04 A^3
MD Temperature:                      0.0033078659 H         1044.5402 K
MD Kinetic Energy:                   0.0198471951 H            0.5401 eV
Total MD Energy:                   -19.2994426931 H         -525.1646 eV
Pressure:                           -0.111711E-04 au    -0.328664E+09 Pa
Gibbs free energy including KE:    -19.2994426931 H         -525.1646 eV

--------------------------------------------------------------------------------

***  Geometry step: 995


Total Energy:                      -19.3192010511 H         -525.7022 eV
Extrapolated to 0:                 -19.3192010511 H         -525.7022 eV
Total Mermin free energy:          -19.3192010511 H         -525.7022 eV
Force related energy:              -19.3192010511 H         -525.7022 eV
Volume:                              0.100434E+05 au^3   0.148828E+04 A^3
MD Temperature:                      0.0032930602 H         1039.8649 K
MD Kinetic Energy:                   0.0197583611 H            0.5377 eV
Total MD Energy:                   -19.2994426900 H         -525.1646 eV
Pressure:                           -0.112385E-04 au    -0.330648E+09 Pa
Gibbs free energy including KE:    -19.2994426900 H         -525.1646 eV

--------------------------------------------------------------------------------

***  Geometry step: 996


Total Energy:                      -19.3191136875 H         -525.6998 eV
Extrapolated to 0:                 -19.3191136875 H         -525.6998 eV
Total Mermin free energy:          -19.3191136875 H         -525.6998 eV
Force related energy:              -19.3191136875 H         -525.6998 eV
Volume:                              0.100434E+05 au^3   0.148828E+04 A^3
MD Temperature:                      0.0032785001 H         1035.2672 K
MD Kinetic Energy:                   0.0196710005 H            0.5353 eV
Total MD Energy:                   -19.2994426870 H         -525.1646 eV
Pressure:                           -0.113036E-04 au    -0.332563E+09 Pa
Gibbs free energy including KE:    -19.2994426870 H         -525.1646 eV

--------------------------------------------------------------------------------

***  Geometry step: 997


Total Energy:                      -19.3190278451 H         -525.6975 eV
Extrapolated to 0:                 -19.3190278451 H         -525.6975 eV
Total Mermin free energy:          -19.3190278451 H         -525.6975 eV
Force related energy:              -19.3190278451 H         -525.6975 eV
Volume:                              0.100434E+05 au^3   0.148828E+04 A^3
MD Temperature:                      0.0032641935 H         1030.7496 K
MD Kinetic Energy:                   0.0195851611 H            0.5329 eV
Total MD Energy:                   -19.2994426841 H         -525.1646 eV
Pressure:                           -0.113663E-04 au    -0.334409E+09 Pa
Gibbs free energy including KE:    -19.2994426841 H         -525.1646 eV

--------------------------------------------------------------------------------

***  Geometry step: 998


Total Energy:                      -19.3189435701 H         -525.6952 eV
Extrapolated to 0:                 -19.3189435701 H         -525.6952 eV
Total Mermin free energy:          -19.3189435701 H         -525.6952 eV
Force related energy:              -19.3189435701 H         -525.6952 eV
Volume:                              0.100434E+05 au^3   0.148828E+04 A^3
MD Temperature:                      0.0032501481 H         1026.3144 K
MD Kinetic Energy:                   0.0195008888 H            0.5306 eV
Total MD Energy:                   -19.2994426813 H         -525.1646 eV
Pressure:                           -0.114267E-04 au    -0.336186E+09 Pa
Gibbs free energy including KE:    -19.2994426813 H         -525.1646 eV

--------------------------------------------------------------------------------

***  Geometry step: 999


Total Energy:                      -19.3188609072 H         -525.6930 eV
Extrapolated to 0:                 -19.3188609072 H         -525.6930 eV
Total Mermin free energy:          -19.3188609072 H         -525.6930 eV
Force related energy:              -19.3188609072 H         -525.6930 eV
Volume:                              0.100434E+05 au^3   0.148828E+04 A^3
MD Temperature:                      0.0032363714 H         1021.9641 K
MD Kinetic Energy:                   0.0194182287 H            0.5284 eV
Total MD Energy:                   -19.2994426785 H         -525.1646 eV
Pressure:                           -0.114848E-04 au    -0.337894E+09 Pa
Gibbs free energy including KE:    -19.2994426785 H         -525.1646 eV

--------------------------------------------------------------------------------

***  Geometry step: 1000


Total Energy:                      -19.3187798998 H         -525.6907 eV
Extrapolated to 0:                 -19.3187798998 H         -525.6907 eV
Total Mermin free energy:          -19.3187798998 H         -525.6907 eV
Force related energy:              -19.3187798998 H         -525.6907 eV
Volume:                              0.100434E+05 au^3   0.148828E+04 A^3
MD Temperature:                      0.0032228707 H         1017.7008 K
MD Kinetic Energy:                   0.0193372239 H            0.5262 eV
Total MD Energy:                   -19.2994426759 H         -525.1646 eV
Pressure:                           -0.115405E-04 au    -0.339533E+09 Pa
Gibbs free energy including KE:    -19.2994426759 H         -525.1646 eV

Molecular dynamics completed
MD information accumulated in md.out

--------------------------------------------------------------------------------
DFTB+ running times                          cpu [s]             wall clock [s]
--------------------------------------------------------------------------------
Pre-SCC initialisation                 +     0.63  (  8.2%)      0.11  ( 10.7%)
SCC                                    +     3.10  ( 40.3%)      0.44  ( 43.0%)
Post-SCC processing                    +     3.93  ( 51.1%)      0.47  ( 46.1%)
--------------------------------------------------------------------------------
Missing                                +     0.03  (  0.3%)      0.00  (  0.2%)
Total                                  =     7.69  (100.0%)      1.02  (100.0%)
--------------------------------------------------------------------------------
