|===============================================================================
|
|  DFTB+ release 19.1
|
|  Copyright (C) 2006 - 2019  DFTB+ developers group
|
|===============================================================================
|
|  When publishing results obtained with DFTB+, please cite the following
|  reference:
|
|  * B. Aradi, B. Hourahine and T. Frauenheim,
|    DFTB+, a Sparse Matrix-Based Implementation of the DFTB Method,
|    J. Phys. Chem. A, 111 5678 (2007).  [doi: 10.1021/jp070186p]
|
|  You should also cite additional publications crediting the parametrization
|  data you use. Please consult the documentation of the SK-files for the
|  references.
|
|===============================================================================

Reading input file 'dftb_in.hsd'
Parser version: 7

--------------------------------------------------------------------------------
Reading SK-files:
Done.


Processed input in HSD format written to 'dftb_pin.hsd'

Starting initialization...
--------------------------------------------------------------------------------
OpenMP threads:              8
Chosen random seed:          25515969
Mode:                        MD with scaling of velocities according to temperature
                             (a.k.a. 'not' NVT ensemble using Berendsen thermostating)
Self consistent charges:     No
Spin polarisation:           No
Nr. of up electrons:            64.000000
Nr. of down electrons:          64.000000
Periodic boundaries:         Yes
Electronic solver:           Relatively robust
Electronic temperature:        0.100000E-07 H      0.272114E-06 eV
Time step:                     0.413414E+02
Included shells:            Si:  s, p
K-points and weights:           1:  0.000000  0.000000  0.000000     1.000000

K-points in absolute space:     1:  0.000000  0.000000  0.000000

Extra options:
                             Mulliken analysis
Force type                   original

--------------------------------------------------------------------------------

***  Geometry step: 0


Total Energy:                      -40.9035592904 H        -1113.0425 eV
Extrapolated to 0:                 -40.9035592904 H        -1113.0425 eV
Total Mermin free energy:          -40.9035592904 H        -1113.0425 eV
Force related energy:              -40.9035592904 H        -1113.0425 eV
Volume:                              0.833978E+04 au^3   0.123583E+04 A^3
MD Temperature:                      0.0052420176 H         1655.2962 K
MD Kinetic Energy:                   0.2437538162 H            6.6329 eV
Total MD Energy:                   -40.6598054742 H        -1106.4096 eV
Pressure:                            0.248033E-04 au     0.729737E+09 Pa
Gibbs free energy including KE:    -40.6598054742 H        -1106.4096 eV

--------------------------------------------------------------------------------

***  Geometry step: 1


Total Energy:                      -40.9008500377 H        -1112.9688 eV
Extrapolated to 0:                 -40.9008500377 H        -1112.9688 eV
Total Mermin free energy:          -40.9008500377 H        -1112.9688 eV
Force related energy:              -40.9008500377 H        -1112.9688 eV
Volume:                              0.833978E+04 au^3   0.123583E+04 A^3
MD Temperature:                      0.0051567673 H         1628.3764 K
MD Kinetic Energy:                   0.2397896789 H            6.5250 eV
Total MD Energy:                   -40.6610603588 H        -1106.4437 eV
Pressure:                            0.244573E-04 au     0.719557E+09 Pa
Gibbs free energy including KE:    -40.6610603588 H        -1106.4437 eV

--------------------------------------------------------------------------------

***  Geometry step: 2


Total Energy:                      -40.8965350606 H        -1112.8513 eV
Extrapolated to 0:                 -40.8965350606 H        -1112.8513 eV
Total Mermin free energy:          -40.8965350606 H        -1112.8513 eV
Force related energy:              -40.8965350606 H        -1112.8513 eV
Volume:                              0.833978E+04 au^3   0.123583E+04 A^3
MD Temperature:                      0.0050622076 H         1598.5168 K
MD Kinetic Energy:                   0.2353926521 H            6.4054 eV
Total MD Energy:                   -40.6611424085 H        -1106.4460 eV
Pressure:                            0.240795E-04 au     0.708444E+09 Pa
Gibbs free energy including KE:    -40.6611424085 H        -1106.4460 eV

--------------------------------------------------------------------------------

***  Geometry step: 3


Total Energy:                      -40.8907404775 H        -1112.6937 eV
Extrapolated to 0:                 -40.8907404775 H        -1112.6937 eV
Total Mermin free energy:          -40.8907404775 H        -1112.6937 eV
Force related energy:              -40.8907404775 H        -1112.6937 eV
Volume:                              0.833978E+04 au^3   0.123583E+04 A^3
MD Temperature:                      0.0049359954 H         1558.6622 K
MD Kinetic Energy:                   0.2295237847 H            6.2457 eV
Total MD Energy:                   -40.6612166929 H        -1106.4480 eV
Pressure:                            0.235739E-04 au     0.693568E+09 Pa
Gibbs free energy including KE:    -40.6612166929 H        -1106.4480 eV

--------------------------------------------------------------------------------

***  Geometry step: 4


Total Energy:                      -40.8836307488 H        -1112.5002 eV
Extrapolated to 0:                 -40.8836307488 H        -1112.5002 eV
Total Mermin free energy:          -40.8836307488 H        -1112.5002 eV
Force related energy:              -40.8836307488 H        -1112.5002 eV
Volume:                              0.833978E+04 au^3   0.123583E+04 A^3
MD Temperature:                      0.0047816892 H         1509.9362 K
MD Kinetic Energy:                   0.2223485499 H            6.0504 eV
Total MD Energy:                   -40.6612821989 H        -1106.4498 eV
Pressure:                            0.229352E-04 au     0.674778E+09 Pa
Gibbs free energy including KE:    -40.6612821989 H        -1106.4498 eV

--------------------------------------------------------------------------------

***  Geometry step: 5


Total Energy:                      -40.8754036167 H        -1112.2763 eV
Extrapolated to 0:                 -40.8754036167 H        -1112.2763 eV
Total Mermin free energy:          -40.8754036167 H        -1112.2763 eV
Force related energy:              -40.8754036167 H        -1112.2763 eV
Volume:                              0.833978E+04 au^3   0.123583E+04 A^3
MD Temperature:                      0.0046035602 H         1453.6876 K
MD Kinetic Energy:                   0.2140655484 H            5.8250 eV
Total MD Energy:                   -40.6613380684 H        -1106.4513 eV
Pressure:                            0.221566E-04 au     0.651870E+09 Pa
Gibbs free energy including KE:    -40.6613380684 H        -1106.4513 eV

--------------------------------------------------------------------------------

***  Geometry step: 6


Total Energy:                      -40.8662849482 H        -1112.0282 eV
Extrapolated to 0:                 -40.8662849482 H        -1112.0282 eV
Total Mermin free energy:          -40.8662849482 H        -1112.0282 eV
Force related energy:              -40.8662849482 H        -1112.0282 eV
Volume:                              0.833978E+04 au^3   0.123583E+04 A^3
MD Temperature:                      0.0044064799 H         1391.4546 K
MD Kinetic Energy:                   0.2049013136 H            5.5756 eV
Total MD Energy:                   -40.6613836346 H        -1106.4525 eV
Pressure:                            0.212464E-04 au     0.625092E+09 Pa
Gibbs free energy including KE:    -40.6613836346 H        -1106.4525 eV

--------------------------------------------------------------------------------

***  Geometry step: 7


Total Energy:                      -40.8565212785 H        -1111.7625 eV
Extrapolated to 0:                 -40.8565212785 H        -1111.7625 eV
Total Mermin free energy:          -40.8565212785 H        -1111.7625 eV
Force related energy:              -40.8565212785 H        -1111.7625 eV
Volume:                              0.833978E+04 au^3   0.123583E+04 A^3
MD Temperature:                      0.0041957511 H         1324.9118 K
MD Kinetic Energy:                   0.1951024254 H            5.3090 eV
Total MD Energy:                   -40.6614188531 H        -1106.4535 eV
Pressure:                            0.201978E-04 au     0.594240E+09 Pa
Gibbs free energy including KE:    -40.6614188531 H        -1106.4535 eV

--------------------------------------------------------------------------------

***  Geometry step: 8


Total Energy:                      -40.8463709418 H        -1111.4863 eV
Extrapolated to 0:                 -40.8463709418 H        -1111.4863 eV
Total Mermin free energy:          -40.8463709418 H        -1111.4863 eV
Force related energy:              -40.8463709418 H        -1111.4863 eV
Volume:                              0.833978E+04 au^3   0.123583E+04 A^3
MD Temperature:                      0.0039769044 H         1255.8056 K
MD Kinetic Energy:                   0.1849260550 H            5.0321 eV
Total MD Energy:                   -40.6614448868 H        -1106.4542 eV
Pressure:                            0.190091E-04 au     0.559268E+09 Pa
Gibbs free energy including KE:    -40.6614448868 H        -1106.4542 eV

--------------------------------------------------------------------------------

***  Geometry step: 9


Total Energy:                      -40.8360933080 H        -1111.2066 eV
Extrapolated to 0:                 -40.8360933080 H        -1111.2066 eV
Total Mermin free energy:          -40.8360933080 H        -1111.2066 eV
Force related energy:              -40.8360933080 H        -1111.2066 eV
Volume:                              0.833978E+04 au^3   0.123583E+04 A^3
MD Temperature:                      0.0037555482 H         1185.9069 K
MD Kinetic Energy:                   0.1746329905 H            4.7520 eV
Total MD Energy:                   -40.6614603174 H        -1106.4546 eV
Pressure:                            0.177004E-04 au     0.520765E+09 Pa
Gibbs free energy including KE:    -40.6614603174 H        -1106.4546 eV

--------------------------------------------------------------------------------

***  Geometry step: 10


Total Energy:                      -40.8259448083 H        -1110.9305 eV
Extrapolated to 0:                 -40.8259448083 H        -1110.9305 eV
Total Mermin free energy:          -40.8259448083 H        -1110.9305 eV
Force related energy:              -40.8259448083 H        -1110.9305 eV
Volume:                              0.833978E+04 au^3   0.123583E+04 A^3
MD Temperature:                      0.0035371597 H         1116.9453 K
MD Kinetic Energy:                   0.1644779237 H            4.4757 eV
Total MD Energy:                   -40.6614668845 H        -1106.4548 eV
Pressure:                            0.162589E-04 au     0.478354E+09 Pa
Gibbs free energy including KE:    -40.6614668845 H        -1106.4548 eV

--------------------------------------------------------------------------------

***  Geometry step: 11


Total Energy:                      -40.8161659443 H        -1110.6644 eV
Extrapolated to 0:                 -40.8161659443 H        -1110.6644 eV
Total Mermin free energy:          -40.8161659443 H        -1110.6644 eV
Force related energy:              -40.8161659443 H        -1110.6644 eV
Volume:                              0.833978E+04 au^3   0.123583E+04 A^3
MD Temperature:                      0.0033269050 H         1050.5523 K
MD Kinetic Energy:                   0.1547010822 H            4.2096 eV
Total MD Energy:                   -40.6614648621 H        -1106.4548 eV
Pressure:                            0.146871E-04 au     0.432109E+09 Pa
Gibbs free energy including KE:    -40.6614648621 H        -1106.4548 eV

--------------------------------------------------------------------------------

***  Geometry step: 12


Total Energy:                      -40.8069786790 H        -1110.4144 eV
Extrapolated to 0:                 -40.8069786790 H        -1110.4144 eV
Total Mermin free energy:          -40.8069786790 H        -1110.4144 eV
Force related energy:              -40.8069786790 H        -1110.4144 eV
Volume:                              0.833978E+04 au^3   0.123583E+04 A^3
MD Temperature:                      0.0031295483 H          988.2320 K
MD Kinetic Energy:                   0.1455239951 H            3.9599 eV
Total MD Energy:                   -40.6614546839 H        -1106.4545 eV
Pressure:                            0.129940E-04 au     0.382298E+09 Pa
Gibbs free energy including KE:    -40.6614546839 H        -1106.4545 eV

--------------------------------------------------------------------------------

***  Geometry step: 13


Total Energy:                      -40.7985827428 H        -1110.1859 eV
Extrapolated to 0:                 -40.7985827428 H        -1110.1859 eV
Total Mermin free energy:          -40.7985827428 H        -1110.1859 eV
Force related energy:              -40.7985827428 H        -1110.1859 eV
Volume:                              0.833978E+04 au^3   0.123583E+04 A^3
MD Temperature:                      0.0029493516 H          931.3304 K
MD Kinetic Energy:                   0.1371448473 H            3.7319 eV
Total MD Energy:                   -40.6614378955 H        -1106.4540 eV
Pressure:                            0.112161E-04 au     0.329989E+09 Pa
Gibbs free energy including KE:    -40.6614378955 H        -1106.4540 eV

--------------------------------------------------------------------------------

***  Geometry step: 14


Total Energy:                      -40.7911498896 H        -1109.9837 eV
Extrapolated to 0:                 -40.7911498896 H        -1109.9837 eV
Total Mermin free energy:          -40.7911498896 H        -1109.9837 eV
Force related energy:              -40.7911498896 H        -1109.9837 eV
Volume:                              0.833978E+04 au^3   0.123583E+04 A^3
MD Temperature:                      0.0027899927 H          881.0090 K
MD Kinetic Energy:                   0.1297346626 H            3.5303 eV
Total MD Energy:                   -40.6614152270 H        -1106.4534 eV
Pressure:                            0.936601E-05 au     0.275557E+09 Pa
Gibbs free energy including KE:    -40.6614152270 H        -1106.4534 eV

--------------------------------------------------------------------------------

***  Geometry step: 15


Total Energy:                      -40.7848201859 H        -1109.8114 eV
Extrapolated to 0:                 -40.7848201859 H        -1109.8114 eV
Total Mermin free energy:          -40.7848201859 H        -1109.8114 eV
Force related energy:              -40.7848201859 H        -1109.8114 eV
Volume:                              0.833978E+04 au^3   0.123583E+04 A^3
MD Temperature:                      0.0026544528 H          838.2089 K
MD Kinetic Energy:                   0.1234320552 H            3.3588 eV
Total MD Energy:                   -40.6613881307 H        -1106.4527 eV
Pressure:                            0.746042E-05 au     0.219493E+09 Pa
Gibbs free energy including KE:    -40.6613881307 H        -1106.4527 eV

--------------------------------------------------------------------------------

***  Geometry step: 16


Total Energy:                      -40.7796991544 H        -1109.6721 eV
Extrapolated to 0:                 -40.7796991544 H        -1109.6721 eV
Total Mermin free energy:          -40.7796991544 H        -1109.6721 eV
Force related energy:              -40.7796991544 H        -1109.6721 eV
Volume:                              0.833978E+04 au^3   0.123583E+04 A^3
MD Temperature:                      0.0025449724 H          803.6378 K
MD Kinetic Energy:                   0.1183412154 H            3.2202 eV
Total MD Energy:                   -40.6613579390 H        -1106.4518 eV
Pressure:                            0.547742E-05 au     0.161151E+09 Pa
Gibbs free energy including KE:    -40.6613579390 H        -1106.4518 eV

--------------------------------------------------------------------------------

***  Geometry step: 17


Total Energy:                      -40.7758556853 H        -1109.5675 eV
Extrapolated to 0:                 -40.7758556853 H        -1109.5675 eV
Total Mermin free energy:          -40.7758556853 H        -1109.5675 eV
Force related energy:              -40.7758556853 H        -1109.5675 eV
Volume:                              0.833978E+04 au^3   0.123583E+04 A^3
MD Temperature:                      0.0024630208 H          777.7595 K
MD Kinetic Energy:                   0.1145304653 H            3.1165 eV
Total MD Energy:                   -40.6613252200 H        -1106.4510 eV
Pressure:                            0.344579E-05 au     0.101379E+09 Pa
Gibbs free energy including KE:    -40.6613252200 H        -1106.4510 eV

--------------------------------------------------------------------------------

***  Geometry step: 18


Total Energy:                      -40.7733229112 H        -1109.4986 eV
Extrapolated to 0:                 -40.7733229112 H        -1109.4986 eV
Total Mermin free energy:          -40.7733229112 H        -1109.4986 eV
Force related energy:              -40.7733229112 H        -1109.4986 eV
Volume:                              0.833978E+04 au^3   0.123583E+04 A^3
MD Temperature:                      0.0024092783 H          760.7890 K
MD Kinetic Energy:                   0.1120314430 H            3.0485 eV
Total MD Energy:                   -40.6612914682 H        -1106.4500 eV
Pressure:                            0.135856E-05 au     0.399701E+08 Pa
Gibbs free energy including KE:    -40.6612914682 H        -1106.4500 eV

--------------------------------------------------------------------------------

***  Geometry step: 19


Total Energy:                      -40.7720993374 H        -1109.4653 eV
Extrapolated to 0:                 -40.7720993374 H        -1109.4653 eV
Total Mermin free energy:          -40.7720993374 H        -1109.4653 eV
Force related energy:              -40.7720993374 H        -1109.4653 eV
Volume:                              0.833978E+04 au^3   0.123583E+04 A^3
MD Temperature:                      0.0023836865 H          752.7078 K
MD Kinetic Energy:                   0.1108414245 H            3.0161 eV
Total MD Energy:                   -40.6612579128 H        -1106.4491 eV
Pressure:                           -0.779170E-06 au    -0.229240E+08 Pa
Gibbs free energy including KE:    -40.6612579128 H        -1106.4491 eV

--------------------------------------------------------------------------------

***  Geometry step: 20


Total Energy:                      -40.7721501849 H        -1109.4667 eV
Extrapolated to 0:                 -40.7721501849 H        -1109.4667 eV
Total Mermin free energy:          -40.7721501849 H        -1109.4667 eV
Force related energy:              -40.7721501849 H        -1109.4667 eV
Volume:                              0.833978E+04 au^3   0.123583E+04 A^3
MD Temperature:                      0.0023854740 H          753.2722 K
MD Kinetic Energy:                   0.1109245417 H            3.0184 eV
Total MD Energy:                   -40.6612256432 H        -1106.4482 eV
Pressure:                           -0.296092E-05 au    -0.871132E+08 Pa
Gibbs free energy including KE:    -40.6612256432 H        -1106.4482 eV

--------------------------------------------------------------------------------

***  Geometry step: 21


Total Energy:                      -40.7734103252 H        -1109.5009 eV
Extrapolated to 0:                 -40.7734103252 H        -1109.5009 eV
Total Mermin free energy:          -40.7734103252 H        -1109.5009 eV
Force related energy:              -40.7734103252 H        -1109.5009 eV
Volume:                              0.833978E+04 au^3   0.123583E+04 A^3
MD Temperature:                      0.0024132182 H          762.0331 K
MD Kinetic Energy:                   0.1122146476 H            3.0535 eV
Total MD Energy:                   -40.6611956776 H        -1106.4474 eV
Pressure:                           -0.518093E-05 au    -0.152428E+09 Pa
Gibbs free energy including KE:    -40.6611956776 H        -1106.4474 eV

--------------------------------------------------------------------------------

***  Geometry step: 22


Total Energy:                      -40.7757878577 H        -1109.5656 eV
Extrapolated to 0:                 -40.7757878577 H        -1109.5656 eV
Total Mermin free energy:          -40.7757878577 H        -1109.5656 eV
Force related energy:              -40.7757878577 H        -1109.5656 eV
Volume:                              0.833978E+04 au^3   0.123583E+04 A^3
MD Temperature:                      0.0024649227 H          778.3601 K
MD Kinetic Energy:                   0.1146189068 H            3.1189 eV
Total MD Energy:                   -40.6611689509 H        -1106.4467 eV
Pressure:                           -0.743214E-05 au    -0.218661E+09 Pa
Gibbs free energy including KE:    -40.6611689509 H        -1106.4467 eV

--------------------------------------------------------------------------------

***  Geometry step: 23


Total Energy:                      -40.7791681000 H        -1109.6576 eV
Extrapolated to 0:                 -40.7791681000 H        -1109.6576 eV
Total Mermin free energy:          -40.7791681000 H        -1109.6576 eV
Force related energy:              -40.7791681000 H        -1109.6576 eV
Volume:                              0.833978E+04 au^3   0.123583E+04 A^3
MD Temperature:                      0.0025381038 H          801.4688 K
MD Kinetic Energy:                   0.1180218284 H            3.2115 eV
Total MD Energy:                   -40.6611462716 H        -1106.4461 eV
Pressure:                           -0.970422E-05 au    -0.285508E+09 Pa
Gibbs free energy including KE:    -40.6611462716 H        -1106.4461 eV

--------------------------------------------------------------------------------

***  Geometry step: 24


Total Energy:                      -40.7834179963 H        -1109.7733 eV
Extrapolated to 0:                 -40.7834179963 H        -1109.7733 eV
Total Mermin free energy:          -40.7834179963 H        -1109.7733 eV
Force related energy:              -40.7834179963 H        -1109.7733 eV
Volume:                              0.833978E+04 au^3   0.123583E+04 A^3
MD Temperature:                      0.0026298858 H          830.4513 K
MD Kinetic Energy:                   0.1222896891 H            3.3277 eV
Total MD Energy:                   -40.6611283073 H        -1106.4456 eV
Pressure:                           -0.119854E-04 au    -0.352622E+09 Pa
Gibbs free energy including KE:    -40.6611283073 H        -1106.4456 eV

--------------------------------------------------------------------------------

***  Geometry step: 25


Total Energy:                      -40.7883907893 H        -1109.9086 eV
Extrapolated to 0:                 -40.7883907893 H        -1109.9086 eV
Total Mermin free energy:          -40.7883907893 H        -1109.9086 eV
Force related energy:              -40.7883907893 H        -1109.9086 eV
Volume:                              0.833978E+04 au^3   0.123583E+04 A^3
MD Temperature:                      0.0027371009 H          864.3071 K
MD Kinetic Energy:                   0.1272751907 H            3.4633 eV
Total MD Energy:                   -40.6611155986 H        -1106.4453 eV
Pressure:                           -0.142638E-04 au    -0.419655E+09 Pa
Gibbs free energy including KE:    -40.6611155986 H        -1106.4453 eV

--------------------------------------------------------------------------------

***  Geometry step: 26


Total Energy:                      -40.7939304782 H        -1110.0593 eV
Extrapolated to 0:                 -40.7939304782 H        -1110.0593 eV
Total Mermin free energy:          -40.7939304782 H        -1110.0593 eV
Force related energy:              -40.7939304782 H        -1110.0593 eV
Volume:                              0.833978E+04 au^3   0.123583E+04 A^3
MD Temperature:                      0.0028563848 H          901.9739 K
MD Kinetic Energy:                   0.1328218943 H            3.6143 eV
Total MD Energy:                   -40.6611085840 H        -1106.4451 eV
Pressure:                           -0.165207E-04 au    -0.486057E+09 Pa
Gibbs free energy including KE:    -40.6611085840 H        -1106.4451 eV

--------------------------------------------------------------------------------

***  Geometry step: 27


Total Energy:                      -40.7998755922 H        -1110.2211 eV
Extrapolated to 0:                 -40.7998755922 H        -1110.2211 eV
Total Mermin free energy:          -40.7998755922 H        -1110.2211 eV
Force related energy:              -40.7998755922 H        -1110.2211 eV
Volume:                              0.833978E+04 au^3   0.123583E+04 A^3
MD Temperature:                      0.0029842589 H          942.3533 K
MD Kinetic Energy:                   0.1387680367 H            3.7761 eV
Total MD Energy:                   -40.6611075555 H        -1106.4450 eV
Pressure:                           -0.187341E-04 au    -0.551175E+09 Pa
Gibbs free energy including KE:    -40.6611075555 H        -1106.4450 eV

--------------------------------------------------------------------------------

***  Geometry step: 28


Total Energy:                      -40.8060629937 H        -1110.3895 eV
Extrapolated to 0:                 -40.8060629937 H        -1110.3895 eV
Total Mermin free energy:          -40.8060629937 H        -1110.3895 eV
Force related energy:              -40.8060629937 H        -1110.3895 eV
Volume:                              0.833978E+04 au^3   0.123583E+04 A^3
MD Temperature:                      0.0031172163 H          984.3379 K
MD Kinetic Energy:                   0.1449505596 H            3.9443 eV
Total MD Energy:                   -40.6611124341 H        -1106.4452 eV
Pressure:                           -0.208923E-04 au    -0.614673E+09 Pa
Gibbs free energy including KE:    -40.6611124341 H        -1106.4452 eV

--------------------------------------------------------------------------------

***  Geometry step: 29


Total Energy:                      -40.8123330301 H        -1110.5601 eV
Extrapolated to 0:                 -40.8123330301 H        -1110.5601 eV
Total Mermin free energy:          -40.8123330301 H        -1110.5601 eV
Force related energy:              -40.8123330301 H        -1110.5601 eV
Volume:                              0.833978E+04 au^3   0.123583E+04 A^3
MD Temperature:                      0.0032518227 H         1026.8432 K
MD Kinetic Energy:                   0.1512097571 H            4.1146 eV
Total MD Energy:                   -40.6611232731 H        -1106.4455 eV
Pressure:                           -0.230027E-04 au    -0.676764E+09 Pa
Gibbs free energy including KE:    -40.6611232731 H        -1106.4455 eV

--------------------------------------------------------------------------------

***  Geometry step: 30


Total Energy:                      -40.8185319499 H        -1110.7288 eV
Extrapolated to 0:                 -40.8185319499 H        -1110.7288 eV
Total Mermin free energy:          -40.8185319499 H        -1110.7288 eV
Force related energy:              -40.8185319499 H        -1110.7288 eV
Volume:                              0.833978E+04 au^3   0.123583E+04 A^3
MD Temperature:                      0.0033847728 H         1068.8254 K
MD Kinetic Energy:                   0.1573919346 H            4.2829 eV
Total MD Energy:                   -40.6611400154 H        -1106.4459 eV
Pressure:                           -0.250413E-04 au    -0.736740E+09 Pa
Gibbs free energy including KE:    -40.6611400154 H        -1106.4459 eV

--------------------------------------------------------------------------------

***  Geometry step: 31


Total Energy:                      -40.8245133225 H        -1110.8915 eV
Extrapolated to 0:                 -40.8245133225 H        -1110.8915 eV
Total Mermin free energy:          -40.8245133225 H        -1110.8915 eV
Force related energy:              -40.8245133225 H        -1110.8915 eV
Volume:                              0.833978E+04 au^3   0.123583E+04 A^3
MD Temperature:                      0.0035129259 H         1109.2929 K
MD Kinetic Energy:                   0.1633510539 H            4.4450 eV
Total MD Energy:                   -40.6611622686 H        -1106.4465 eV
Pressure:                           -0.269973E-04 au    -0.794288E+09 Pa
Gibbs free energy including KE:    -40.6611622686 H        -1106.4465 eV

--------------------------------------------------------------------------------

***  Geometry step: 32


Total Energy:                      -40.8301409661 H        -1111.0447 eV
Extrapolated to 0:                 -40.8301409661 H        -1111.0447 eV
Total Mermin free energy:          -40.8301409661 H        -1111.0447 eV
Force related energy:              -40.8301409661 H        -1111.0447 eV
Volume:                              0.833978E+04 au^3   0.123583E+04 A^3
MD Temperature:                      0.0036333631 H         1147.3240 K
MD Kinetic Energy:                   0.1689513865 H            4.5974 eV
Total MD Energy:                   -40.6611895796 H        -1106.4473 eV
Pressure:                           -0.288665E-04 au    -0.849281E+09 Pa
Gibbs free energy including KE:    -40.6611895796 H        -1106.4473 eV

--------------------------------------------------------------------------------

***  Geometry step: 33


Total Energy:                      -40.8352912074 H        -1111.1848 eV
Extrapolated to 0:                 -40.8352912074 H        -1111.1848 eV
Total Mermin free energy:          -40.8352912074 H        -1111.1848 eV
Force related energy:              -40.8352912074 H        -1111.1848 eV
Volume:                              0.833978E+04 au^3   0.123583E+04 A^3
MD Temperature:                      0.0037434350 H         1182.0819 K
MD Kinetic Energy:                   0.1740697264 H            4.7367 eV
Total MD Energy:                   -40.6612214809 H        -1106.4481 eV
Pressure:                           -0.306486E-04 au    -0.901712E+09 Pa
Gibbs free energy including KE:    -40.6612214809 H        -1106.4481 eV

--------------------------------------------------------------------------------

***  Geometry step: 34


Total Energy:                      -40.8398540186 H        -1111.3090 eV
Extrapolated to 0:                 -40.8398540186 H        -1111.3090 eV
Total Mermin free energy:          -40.8398540186 H        -1111.3090 eV
Force related energy:              -40.8398540186 H        -1111.3090 eV
Volume:                              0.833978E+04 au^3   0.123583E+04 A^3
MD Temperature:                      0.0038407782 H         1212.8204 K
MD Kinetic Energy:                   0.1785961869 H            4.8598 eV
Total MD Energy:                   -40.6612578316 H        -1106.4491 eV
Pressure:                           -0.323263E-04 au    -0.951071E+09 Pa
Gibbs free energy including KE:    -40.6612578316 H        -1106.4491 eV

--------------------------------------------------------------------------------

***  Geometry step: 35


Total Energy:                      -40.8437283459 H        -1111.4144 eV
Extrapolated to 0:                 -40.8437283459 H        -1111.4144 eV
Total Mermin free energy:          -40.8437283459 H        -1111.4144 eV
Force related energy:              -40.8437283459 H        -1111.4144 eV
Volume:                              0.833978E+04 au^3   0.123583E+04 A^3
MD Temperature:                      0.0039232541 H         1238.8642 K
MD Kinetic Energy:                   0.1824313145 H            4.9642 eV
Total MD Energy:                   -40.6612970314 H        -1106.4502 eV
Pressure:                           -0.338534E-04 au    -0.996001E+09 Pa
Gibbs free energy including KE:    -40.6612970314 H        -1106.4502 eV

--------------------------------------------------------------------------------

***  Geometry step: 36


Total Energy:                      -40.8468298023 H        -1111.4988 eV
Extrapolated to 0:                 -40.8468298023 H        -1111.4988 eV
Total Mermin free energy:          -40.8468298023 H        -1111.4988 eV
Force related energy:              -40.8468298023 H        -1111.4988 eV
Volume:                              0.833978E+04 au^3   0.123583E+04 A^3
MD Temperature:                      0.0039890478 H         1259.6402 K
MD Kinetic Energy:                   0.1854907208 H            5.0475 eV
Total MD Energy:                   -40.6613390815 H        -1106.4513 eV
Pressure:                           -0.352687E-04 au    -0.103764E+10 Pa
Gibbs free energy including KE:    -40.6613390815 H        -1106.4513 eV

--------------------------------------------------------------------------------

***  Geometry step: 37


Total Energy:                      -40.8490898283 H        -1111.5603 eV
Extrapolated to 0:                 -40.8490898283 H        -1111.5603 eV
Total Mermin free energy:          -40.8490898283 H        -1111.5603 eV
Force related energy:              -40.8490898283 H        -1111.5603 eV
Volume:                              0.833978E+04 au^3   0.123583E+04 A^3
MD Temperature:                      0.0040367120 H         1274.6913 K
MD Kinetic Energy:                   0.1877071093 H            5.1078 eV
Total MD Energy:                   -40.6613827190 H        -1106.4525 eV
Pressure:                           -0.365325E-04 au    -0.107482E+10 Pa
Gibbs free energy including KE:    -40.6613827190 H        -1106.4525 eV

--------------------------------------------------------------------------------

***  Geometry step: 38


Total Energy:                      -40.8504555700 H        -1111.5975 eV
Extrapolated to 0:                 -40.8504555700 H        -1111.5975 eV
Total Mermin free energy:          -40.8504555700 H        -1111.5975 eV
Force related energy:              -40.8504555700 H        -1111.5975 eV
Volume:                              0.833978E+04 au^3   0.123583E+04 A^3
MD Temperature:                      0.0040651436 H         1283.6693 K
MD Kinetic Energy:                   0.1890291761 H            5.1437 eV
Total MD Energy:                   -40.6614263939 H        -1106.4537 eV
Pressure:                           -0.376468E-04 au    -0.110761E+10 Pa
Gibbs free energy including KE:    -40.6614263939 H        -1106.4537 eV

--------------------------------------------------------------------------------

***  Geometry step: 39


Total Energy:                      -40.8508972391 H        -1111.6095 eV
Extrapolated to 0:                 -40.8508972391 H        -1111.6095 eV
Total Mermin free energy:          -40.8508972391 H        -1111.6095 eV
Force related energy:              -40.8508972391 H        -1111.6095 eV
Volume:                              0.833978E+04 au^3   0.123583E+04 A^3
MD Temperature:                      0.0040736992 H         1286.3709 K
MD Kinetic Energy:                   0.1894270133 H            5.1546 eV
Total MD Energy:                   -40.6614702259 H        -1106.4549 eV
Pressure:                           -0.385975E-04 au    -0.113558E+10 Pa
Gibbs free energy including KE:    -40.6614702259 H        -1106.4549 eV

--------------------------------------------------------------------------------

***  Geometry step: 40


Total Energy:                      -40.8504008505 H        -1111.5960 eV
Extrapolated to 0:                 -40.8504008505 H        -1111.5960 eV
Total Mermin free energy:          -40.8504008505 H        -1111.5960 eV
Force related energy:              -40.8504008505 H        -1111.5960 eV
Volume:                              0.833978E+04 au^3   0.123583E+04 A^3
MD Temperature:                      0.0040621399 H         1282.7208 K
MD Kinetic Energy:                   0.1888895052 H            5.1399 eV
Total MD Energy:                   -40.6615113452 H        -1106.4560 eV
Pressure:                           -0.394007E-04 au    -0.115921E+10 Pa
Gibbs free energy including KE:    -40.6615113452 H        -1106.4560 eV

--------------------------------------------------------------------------------

***  Geometry step: 41


Total Energy:                      -40.8489761603 H        -1111.5572 eV
Extrapolated to 0:                 -40.8489761603 H        -1111.5572 eV
Total Mermin free energy:          -40.8489761603 H        -1111.5572 eV
Force related energy:              -40.8489761603 H        -1111.5572 eV
Volume:                              0.833978E+04 au^3   0.123583E+04 A^3
MD Temperature:                      0.0040306360 H         1272.7727 K
MD Kinetic Energy:                   0.1874245748 H            5.1001 eV
Total MD Energy:                   -40.6615515855 H        -1106.4571 eV
Pressure:                           -0.400453E-04 au    -0.117817E+10 Pa
Gibbs free energy including KE:    -40.6615515855 H        -1106.4571 eV

--------------------------------------------------------------------------------

***  Geometry step: 42


Total Energy:                      -40.8466463912 H        -1111.4938 eV
Extrapolated to 0:                 -40.8466463912 H        -1111.4938 eV
Total Mermin free energy:          -40.8466463912 H        -1111.4938 eV
Force related energy:              -40.8466463912 H        -1111.4938 eV
Volume:                              0.833978E+04 au^3   0.123583E+04 A^3
MD Temperature:                      0.0039797406 H         1256.7012 K
MD Kinetic Energy:                   0.1850579382 H            5.0357 eV
Total MD Energy:                   -40.6615884530 H        -1106.4581 eV
Pressure:                           -0.405671E-04 au    -0.119353E+10 Pa
Gibbs free energy including KE:    -40.6615884530 H        -1106.4581 eV

--------------------------------------------------------------------------------

***  Geometry step: 43


Total Energy:                      -40.8434544523 H        -1111.4069 eV
Extrapolated to 0:                 -40.8434544523 H        -1111.4069 eV
Total Mermin free energy:          -40.8434544523 H        -1111.4069 eV
Force related energy:              -40.8434544523 H        -1111.4069 eV
Volume:                              0.833978E+04 au^3   0.123583E+04 A^3
MD Temperature:                      0.0039104031 H         1234.8061 K
MD Kinetic Energy:                   0.1818337421 H            4.9479 eV
Total MD Energy:                   -40.6616207101 H        -1106.4590 eV
Pressure:                           -0.409624E-04 au    -0.120516E+10 Pa
Gibbs free energy including KE:    -40.6616207101 H        -1106.4590 eV

--------------------------------------------------------------------------------

***  Geometry step: 44


Total Energy:                      -40.8394674121 H        -1111.2985 eV
Extrapolated to 0:                 -40.8394674121 H        -1111.2985 eV
Total Mermin free energy:          -40.8394674121 H        -1111.2985 eV
Force related energy:              -40.8394674121 H        -1111.2985 eV
Volume:                              0.833978E+04 au^3   0.123583E+04 A^3
MD Temperature:                      0.0038240682 H         1207.5438 K
MD Kinetic Energy:                   0.1778191713 H            4.8387 eV
Total MD Energy:                   -40.6616482408 H        -1106.4597 eV
Pressure:                           -0.412292E-04 au    -0.121300E+10 Pa
Gibbs free energy including KE:    -40.6616482408 H        -1106.4597 eV

--------------------------------------------------------------------------------

***  Geometry step: 45


Total Energy:                      -40.8347722724 H        -1111.1707 eV
Extrapolated to 0:                 -40.8347722724 H        -1111.1707 eV
Total Mermin free energy:          -40.8347722724 H        -1111.1707 eV
Force related energy:              -40.8347722724 H        -1111.1707 eV
Volume:                              0.833978E+04 au^3   0.123583E+04 A^3
MD Temperature:                      0.0037226359 H         1175.5140 K
MD Kinetic Energy:                   0.1731025672 H            4.7104 eV
Total MD Energy:                   -40.6616697052 H        -1106.4603 eV
Pressure:                           -0.413925E-04 au    -0.121781E+10 Pa
Gibbs free energy including KE:    -40.6616697052 H        -1106.4603 eV

--------------------------------------------------------------------------------

***  Geometry step: 46


Total Energy:                      -40.8294725939 H        -1111.0265 eV
Extrapolated to 0:                 -40.8294725939 H        -1111.0265 eV
Total Mermin free energy:          -40.8294725939 H        -1111.0265 eV
Force related energy:              -40.8294725939 H        -1111.0265 eV
Volume:                              0.833978E+04 au^3   0.123583E+04 A^3
MD Temperature:                      0.0036082526 H         1139.3947 K
MD Kinetic Energy:                   0.1677837458 H            4.5656 eV
Total MD Energy:                   -40.6616888482 H        -1106.4608 eV
Pressure:                           -0.414031E-04 au    -0.121812E+10 Pa
Gibbs free energy including KE:    -40.6616888482 H        -1106.4608 eV

--------------------------------------------------------------------------------

***  Geometry step: 47


Total Energy:                      -40.8236626223 H        -1110.8684 eV
Extrapolated to 0:                 -40.8236626223 H        -1110.8684 eV
Total Mermin free energy:          -40.8236626223 H        -1110.8684 eV
Force related energy:              -40.8236626223 H        -1110.8684 eV
Volume:                              0.833978E+04 au^3   0.123583E+04 A^3
MD Temperature:                      0.0034830452 H         1099.8574 K
MD Kinetic Energy:                   0.1619615997 H            4.4072 eV
Total MD Energy:                   -40.6617010226 H        -1106.4612 eV
Pressure:                           -0.412229E-04 au    -0.121282E+10 Pa
Gibbs free energy including KE:    -40.6617010226 H        -1106.4612 eV

--------------------------------------------------------------------------------

***  Geometry step: 48


Total Energy:                      -40.8174469927 H        -1110.6992 eV
Extrapolated to 0:                 -40.8174469927 H        -1110.6992 eV
Total Mermin free energy:          -40.8174469927 H        -1110.6992 eV
Force related energy:              -40.8174469927 H        -1110.6992 eV
Volume:                              0.833978E+04 au^3   0.123583E+04 A^3
MD Temperature:                      0.0033492729 H         1057.6155 K
MD Kinetic Energy:                   0.1557411889 H            4.2379 eV
Total MD Energy:                   -40.6617058039 H        -1106.4613 eV
Pressure:                           -0.408750E-04 au    -0.120258E+10 Pa
Gibbs free energy including KE:    -40.6617058039 H        -1106.4613 eV

--------------------------------------------------------------------------------

***  Geometry step: 49


Total Energy:                      -40.8109452455 H        -1110.5223 eV
Extrapolated to 0:                 -40.8109452455 H        -1110.5223 eV
Total Mermin free energy:          -40.8109452455 H        -1110.5223 eV
Force related energy:              -40.8109452455 H        -1110.5223 eV
Volume:                              0.833978E+04 au^3   0.123583E+04 A^3
MD Temperature:                      0.0032094974 H         1013.4779 K
MD Kinetic Energy:                   0.1492416299 H            4.0611 eV
Total MD Energy:                   -40.6617036155 H        -1106.4613 eV
Pressure:                           -0.403671E-04 au    -0.118764E+10 Pa
Gibbs free energy including KE:    -40.6617036155 H        -1106.4613 eV

--------------------------------------------------------------------------------

***  Geometry step: 50


Total Energy:                      -40.8042858274 H        -1110.3411 eV
Extrapolated to 0:                 -40.8042858274 H        -1110.3411 eV
Total Mermin free energy:          -40.8042858274 H        -1110.3411 eV
Force related energy:              -40.8042858274 H        -1110.3411 eV
Volume:                              0.833978E+04 au^3   0.123583E+04 A^3
MD Temperature:                      0.0030664780 H          968.3160 K
MD Kinetic Energy:                   0.1425912256 H            3.8801 eV
Total MD Energy:                   -40.6616946019 H        -1106.4610 eV
Pressure:                           -0.397065E-04 au    -0.116820E+10 Pa
Gibbs free energy including KE:    -40.6616946019 H        -1106.4610 eV

--------------------------------------------------------------------------------

***  Geometry step: 51


Total Energy:                      -40.7976028810 H        -1110.1593 eV
Extrapolated to 0:                 -40.7976028810 H        -1110.1593 eV
Total Mermin free energy:          -40.7976028810 H        -1110.1593 eV
Force related energy:              -40.7976028810 H        -1110.1593 eV
Volume:                              0.833978E+04 au^3   0.123583E+04 A^3
MD Temperature:                      0.0029230976 H          923.0401 K
MD Kinetic Energy:                   0.1359240393 H            3.6987 eV
Total MD Energy:                   -40.6616788417 H        -1106.4606 eV
Pressure:                           -0.388948E-04 au    -0.114433E+10 Pa
Gibbs free energy including KE:    -40.6616788417 H        -1106.4606 eV

--------------------------------------------------------------------------------

***  Geometry step: 52


Total Energy:                      -40.7910333960 H        -1109.9805 eV
Extrapolated to 0:                 -40.7910333960 H        -1109.9805 eV
Total Mermin free energy:          -40.7910333960 H        -1109.9805 eV
Force related energy:              -40.7910333960 H        -1109.9805 eV
Volume:                              0.833978E+04 au^3   0.123583E+04 A^3
MD Temperature:                      0.0027823000 H          878.5798 K
MD Kinetic Energy:                   0.1293769513 H            3.5205 eV
Total MD Energy:                   -40.6616564447 H        -1106.4600 eV
Pressure:                           -0.379334E-04 au    -0.111604E+10 Pa
Gibbs free energy including KE:    -40.6616564447 H        -1106.4600 eV

--------------------------------------------------------------------------------

***  Geometry step: 53


Total Energy:                      -40.7847159362 H        -1109.8086 eV
Extrapolated to 0:                 -40.7847159362 H        -1109.8086 eV
Total Mermin free energy:          -40.7847159362 H        -1109.8086 eV
Force related energy:              -40.7847159362 H        -1109.8086 eV
Volume:                              0.833978E+04 au^3   0.123583E+04 A^3
MD Temperature:                      0.0026470608 H          835.8747 K
MD Kinetic Energy:                   0.1230883287 H            3.3494 eV
Total MD Energy:                   -40.6616276075 H        -1106.4592 eV
Pressure:                           -0.368364E-04 au    -0.108376E+10 Pa
Gibbs free energy including KE:    -40.6616276075 H        -1106.4592 eV

--------------------------------------------------------------------------------

***  Geometry step: 54


Total Energy:                      -40.7787902282 H        -1109.6473 eV
Extrapolated to 0:                 -40.7787902282 H        -1109.6473 eV
Total Mermin free energy:          -40.7787902282 H        -1109.6473 eV
Force related energy:              -40.7787902282 H        -1109.6473 eV
Volume:                              0.833978E+04 au^3   0.123583E+04 A^3
MD Temperature:                      0.0025203801 H          795.8721 K
MD Kinetic Energy:                   0.1171976740 H            3.1891 eV
Total MD Energy:                   -40.6615925542 H        -1106.4582 eV
Pressure:                           -0.356294E-04 au    -0.104825E+10 Pa
Gibbs free energy including KE:    -40.6615925542 H        -1106.4582 eV

--------------------------------------------------------------------------------

***  Geometry step: 55


Total Energy:                      -40.7733972682 H        -1109.5006 eV
Extrapolated to 0:                 -40.7733972682 H        -1109.5006 eV
Total Mermin free energy:          -40.7733972682 H        -1109.5006 eV
Force related energy:              -40.7733972682 H        -1109.5006 eV
Volume:                              0.833978E+04 au^3   0.123583E+04 A^3
MD Temperature:                      0.0024052790 H          759.5261 K
MD Kinetic Energy:                   0.1118454730 H            3.0435 eV
Total MD Energy:                   -40.6615517952 H        -1106.4571 eV
Pressure:                           -0.343357E-04 au    -0.101019E+10 Pa
Gibbs free energy including KE:    -40.6615517952 H        -1106.4571 eV

--------------------------------------------------------------------------------

***  Geometry step: 56


Total Energy:                      -40.7686779915 H        -1109.3722 eV
Extrapolated to 0:                 -40.7686779915 H        -1109.3722 eV
Total Mermin free energy:          -40.7686779915 H        -1109.3722 eV
Force related energy:              -40.7686779915 H        -1109.3722 eV
Volume:                              0.833978E+04 au^3   0.123583E+04 A^3
MD Temperature:                      0.0023047724 H          727.7887 K
MD Kinetic Energy:                   0.1071719178 H            2.9163 eV
Total MD Energy:                   -40.6615060737 H        -1106.4559 eV
Pressure:                           -0.329853E-04 au    -0.970459E+09 Pa
Gibbs free energy including KE:    -40.6615060737 H        -1106.4559 eV

--------------------------------------------------------------------------------

***  Geometry step: 57


Total Energy:                      -40.7647703014 H        -1109.2658 eV
Extrapolated to 0:                 -40.7647703014 H        -1109.2658 eV
Total Mermin free energy:          -40.7647703014 H        -1109.2658 eV
Force related energy:              -40.7647703014 H        -1109.2658 eV
Volume:                              0.833978E+04 au^3   0.123583E+04 A^3
MD Temperature:                      0.0022218043 H          701.5895 K
MD Kinetic Energy:                   0.1033139017 H            2.8113 eV
Total MD Energy:                   -40.6614563998 H        -1106.4545 eV
Pressure:                           -0.316031E-04 au    -0.929796E+09 Pa
Gibbs free energy including KE:    -40.6614563998 H        -1106.4545 eV

--------------------------------------------------------------------------------

***  Geometry step: 58


Total Energy:                      -40.7618044255 H        -1109.1851 eV
Extrapolated to 0:                 -40.7618044255 H        -1109.1851 eV
Total Mermin free energy:          -40.7618044255 H        -1109.1851 eV
Force related energy:              -40.7618044255 H        -1109.1851 eV
Volume:                              0.833978E+04 au^3   0.123583E+04 A^3
MD Temperature:                      0.0021591492 H          681.8046 K
MD Kinetic Energy:                   0.1004004400 H            2.7320 eV
Total MD Energy:                   -40.6614039855 H        -1106.4531 eV
Pressure:                           -0.302158E-04 au    -0.888980E+09 Pa
Gibbs free energy including KE:    -40.6614039855 H        -1106.4531 eV

--------------------------------------------------------------------------------

***  Geometry step: 59


Total Energy:                      -40.7598971262 H        -1109.1332 eV
Extrapolated to 0:                 -40.7598971262 H        -1109.1332 eV
Total Mermin free energy:          -40.7598971262 H        -1109.1332 eV
Force related energy:              -40.7598971262 H        -1109.1332 eV
Volume:                              0.833978E+04 au^3   0.123583E+04 A^3
MD Temperature:                      0.0021192888 H          669.2177 K
MD Kinetic Energy:                   0.0985469272 H            2.6816 eV
Total MD Energy:                   -40.6613501990 H        -1106.4516 eV
Pressure:                           -0.288486E-04 au    -0.848756E+09 Pa
Gibbs free energy including KE:    -40.6613501990 H        -1106.4516 eV

--------------------------------------------------------------------------------

***  Geometry step: 60


Total Energy:                      -40.7591454752 H        -1109.1128 eV
Extrapolated to 0:                 -40.7591454752 H        -1109.1128 eV
Total Mermin free energy:          -40.7591454752 H        -1109.1128 eV
Force related energy:              -40.7591454752 H        -1109.1128 eV
Volume:                              0.833978E+04 au^3   0.123583E+04 A^3
MD Temperature:                      0.0021042770 H          664.4773 K
MD Kinetic Energy:                   0.0978488807 H            2.6626 eV
Total MD Energy:                   -40.6612965945 H        -1106.4502 eV
Pressure:                           -0.275203E-04 au    -0.809674E+09 Pa
Gibbs free energy including KE:    -40.6612965945 H        -1106.4502 eV

--------------------------------------------------------------------------------

***  Geometry step: 61


Total Energy:                      -40.7596202195 H        -1109.1257 eV
Extrapolated to 0:                 -40.7596202195 H        -1109.1257 eV
Total Mermin free energy:          -40.7596202195 H        -1109.1257 eV
Force related energy:              -40.7596202195 H        -1109.1257 eV
Volume:                              0.833978E+04 au^3   0.123583E+04 A^3
MD Temperature:                      0.0021156009 H          668.0531 K
MD Kinetic Energy:                   0.0983754439 H            2.6769 eV
Total MD Energy:                   -40.6612447756 H        -1106.4488 eV
Pressure:                           -0.262411E-04 au    -0.772041E+09 Pa
Gibbs free energy including KE:    -40.6612447756 H        -1106.4488 eV

--------------------------------------------------------------------------------

***  Geometry step: 62


Total Energy:                      -40.7613596187 H        -1109.1730 eV
Extrapolated to 0:                 -40.7613596187 H        -1109.1730 eV
Total Mermin free energy:          -40.7613596187 H        -1109.1730 eV
Force related energy:              -40.7613596187 H        -1109.1730 eV
Volume:                              0.833978E+04 au^3   0.123583E+04 A^3
MD Temperature:                      0.0021540514 H          680.1948 K
MD Kinetic Energy:                   0.1001633881 H            2.7256 eV
Total MD Energy:                   -40.6611962307 H        -1106.4474 eV
Pressure:                           -0.250209E-04 au    -0.736139E+09 Pa
Gibbs free energy including KE:    -40.6611962307 H        -1106.4474 eV

--------------------------------------------------------------------------------

***  Geometry step: 63


Total Energy:                      -40.7643654483 H        -1109.2548 eV
Extrapolated to 0:                 -40.7643654483 H        -1109.2548 eV
Total Mermin free energy:          -40.7643654483 H        -1109.2548 eV
Force related energy:              -40.7643654483 H        -1109.2548 eV
Volume:                              0.833978E+04 au^3   0.123583E+04 A^3
MD Temperature:                      0.0022196346 H          700.9043 K
MD Kinetic Energy:                   0.1032130078 H            2.8086 eV
Total MD Energy:                   -40.6611524404 H        -1106.4463 eV
Pressure:                           -0.238773E-04 au    -0.702493E+09 Pa
Gibbs free energy including KE:    -40.6611524404 H        -1106.4463 eV

--------------------------------------------------------------------------------

***  Geometry step: 64


Total Energy:                      -40.7685998231 H        -1109.3700 eV
Extrapolated to 0:                 -40.7685998231 H        -1109.3700 eV
Total Mermin free energy:          -40.7685998231 H        -1109.3700 eV
Force related energy:              -40.7685998231 H        -1109.3700 eV
Volume:                              0.833978E+04 au^3   0.123583E+04 A^3
MD Temperature:                      0.0023115019 H          729.9137 K
MD Kinetic Energy:                   0.1074848368 H            2.9248 eV
Total MD Energy:                   -40.6611149863 H        -1106.4452 eV
Pressure:                           -0.228104E-04 au    -0.671104E+09 Pa
Gibbs free energy including KE:    -40.6611149863 H        -1106.4452 eV

--------------------------------------------------------------------------------

***  Geometry step: 65


Total Energy:                      -40.7739825261 H        -1109.5165 eV
Extrapolated to 0:                 -40.7739825261 H        -1109.5165 eV
Total Mermin free energy:          -40.7739825261 H        -1109.5165 eV
Force related energy:              -40.7739825261 H        -1109.5165 eV
Volume:                              0.833978E+04 au^3   0.123583E+04 A^3
MD Temperature:                      0.0024279046 H          766.6707 K
MD Kinetic Energy:                   0.1128975640 H            3.0721 eV
Total MD Energy:                   -40.6610849621 H        -1106.4444 eV
Pressure:                           -0.218244E-04 au    -0.642097E+09 Pa
Gibbs free energy including KE:    -40.6610849621 H        -1106.4444 eV

--------------------------------------------------------------------------------

***  Geometry step: 66


Total Energy:                      -40.7803906158 H        -1109.6909 eV
Extrapolated to 0:                 -40.7803906158 H        -1109.6909 eV
Total Mermin free energy:          -40.7803906158 H        -1109.6909 eV
Force related energy:              -40.7803906158 H        -1109.6909 eV
Volume:                              0.833978E+04 au^3   0.123583E+04 A^3
MD Temperature:                      0.0025661661 H          810.3302 K
MD Kinetic Energy:                   0.1193267223 H            3.2470 eV
Total MD Energy:                   -40.6610638935 H        -1106.4438 eV
Pressure:                           -0.209029E-04 au    -0.614983E+09 Pa
Gibbs free energy including KE:    -40.6610638935 H        -1106.4438 eV

--------------------------------------------------------------------------------

***  Geometry step: 67


Total Energy:                      -40.7876609032 H        -1109.8887 eV
Extrapolated to 0:                 -40.7876609032 H        -1109.8887 eV
Total Mermin free energy:          -40.7876609032 H        -1109.8887 eV
Force related energy:              -40.7876609032 H        -1109.8887 eV
Volume:                              0.833978E+04 au^3   0.123583E+04 A^3
MD Temperature:                      0.0027227788 H          859.7845 K
MD Kinetic Energy:                   0.1266092123 H            3.4452 eV
Total MD Energy:                   -40.6610516909 H        -1106.4435 eV
Pressure:                           -0.200621E-04 au    -0.590247E+09 Pa
Gibbs free energy including KE:    -40.6610516909 H        -1106.4435 eV

--------------------------------------------------------------------------------

***  Geometry step: 68


Total Energy:                      -40.7955981366 H        -1110.1047 eV
Extrapolated to 0:                 -40.7955981366 H        -1110.1047 eV
Total Mermin free energy:          -40.7955981366 H        -1110.1047 eV
Force related energy:              -40.7955981366 H        -1110.1047 eV
Volume:                              0.833978E+04 au^3   0.123583E+04 A^3
MD Temperature:                      0.0028935290 H          913.7031 K
MD Kinetic Energy:                   0.1345490999 H            3.6613 eV
Total MD Energy:                   -40.6610490367 H        -1106.4434 eV
Pressure:                           -0.192861E-04 au    -0.567417E+09 Pa
Gibbs free energy including KE:    -40.6610490367 H        -1106.4434 eV

--------------------------------------------------------------------------------

***  Geometry step: 69


Total Energy:                      -40.8039791651 H        -1110.3328 eV
Extrapolated to 0:                 -40.8039791651 H        -1110.3328 eV
Total Mermin free energy:          -40.8039791651 H        -1110.3328 eV
Force related energy:              -40.8039791651 H        -1110.3328 eV
Volume:                              0.833978E+04 au^3   0.123583E+04 A^3
MD Temperature:                      0.0030736221 H          970.5719 K
MD Kinetic Energy:                   0.1429234254 H            3.8891 eV
Total MD Energy:                   -40.6610557396 H        -1106.4436 eV
Pressure:                           -0.185771E-04 au    -0.546558E+09 Pa
Gibbs free energy including KE:    -40.6610557396 H        -1106.4436 eV

--------------------------------------------------------------------------------

***  Geometry step: 70


Total Energy:                      -40.8125643302 H        -1110.5664 eV
Extrapolated to 0:                 -40.8125643302 H        -1110.5664 eV
Total Mermin free energy:          -40.8125643302 H        -1110.5664 eV
Force related energy:              -40.8125643302 H        -1110.5664 eV
Volume:                              0.833978E+04 au^3   0.123583E+04 A^3
MD Temperature:                      0.0032579089 H         1028.7650 K
MD Kinetic Energy:                   0.1514927635 H            4.1223 eV
Total MD Energy:                   -40.6610715667 H        -1106.4441 eV
Pressure:                           -0.179387E-04 au    -0.527773E+09 Pa
Gibbs free energy including KE:    -40.6610715667 H        -1106.4441 eV

--------------------------------------------------------------------------------

***  Geometry step: 71


Total Energy:                      -40.8211067502 H        -1110.7988 eV
Extrapolated to 0:                 -40.8211067502 H        -1110.7988 eV
Total Mermin free energy:          -40.8211067502 H        -1110.7988 eV
Force related energy:              -40.8211067502 H        -1110.7988 eV
Volume:                              0.833978E+04 au^3   0.123583E+04 A^3
MD Temperature:                      0.0034410950 H         1086.6106 K
MD Kinetic Energy:                   0.1600109161 H            4.3541 eV
Total MD Energy:                   -40.6610958341 H        -1106.4447 eV
Pressure:                           -0.173710E-04 au    -0.511072E+09 Pa
Gibbs free energy including KE:    -40.6610958341 H        -1106.4447 eV

--------------------------------------------------------------------------------

***  Geometry step: 72


Total Energy:                      -40.8293636299 H        -1111.0235 eV
Extrapolated to 0:                 -40.8293636299 H        -1111.0235 eV
Total Mermin free energy:          -40.8293636299 H        -1111.0235 eV
Force related energy:              -40.8293636299 H        -1111.0235 eV
Volume:                              0.833978E+04 au^3   0.123583E+04 A^3
MD Temperature:                      0.0036179797 H         1142.4663 K
MD Kinetic Energy:                   0.1682360566 H            4.5779 eV
Total MD Energy:                   -40.6611275733 H        -1106.4456 eV
Pressure:                           -0.168771E-04 au    -0.496540E+09 Pa
Gibbs free energy including KE:    -40.6611275733 H        -1106.4456 eV

--------------------------------------------------------------------------------

***  Geometry step: 73


Total Energy:                      -40.8371075678 H        -1111.2342 eV
Extrapolated to 0:                 -40.8371075678 H        -1111.2342 eV
Total Mermin free energy:          -40.8371075678 H        -1111.2342 eV
Force related energy:              -40.8371075678 H        -1111.2342 eV
Volume:                              0.833978E+04 au^3   0.123583E+04 A^3
MD Temperature:                      0.0037836964 H         1194.7954 K
MD Kinetic Energy:                   0.1759418836 H            4.7876 eV
Total MD Energy:                   -40.6611656842 H        -1106.4466 eV
Pressure:                           -0.164574E-04 au    -0.484192E+09 Pa
Gibbs free energy including KE:    -40.6611656842 H        -1106.4466 eV

--------------------------------------------------------------------------------

***  Geometry step: 74


Total Energy:                      -40.8441361217 H        -1111.4255 eV
Extrapolated to 0:                 -40.8441361217 H        -1111.4255 eV
Total Mermin free energy:          -40.8441361217 H        -1111.4255 eV
Force related energy:              -40.8441361217 H        -1111.4255 eV
Volume:                              0.833978E+04 au^3   0.123583E+04 A^3
MD Temperature:                      0.0039339141 H         1242.2303 K
MD Kinetic Energy:                   0.1829270060 H            4.9777 eV
Total MD Energy:                   -40.6612091158 H        -1106.4478 eV
Pressure:                           -0.160873E-04 au    -0.473304E+09 Pa
Gibbs free energy including KE:    -40.6612091158 H        -1106.4478 eV

--------------------------------------------------------------------------------

***  Geometry step: 75


Total Energy:                      -40.8502823905 H        -1111.5927 eV
Extrapolated to 0:                 -40.8502823905 H        -1111.5927 eV
Total Mermin free energy:          -40.8502823905 H        -1111.5927 eV
Force related energy:              -40.8502823905 H        -1111.5927 eV
Volume:                              0.833978E+04 au^3   0.123583E+04 A^3
MD Temperature:                      0.0040650810 H         1283.6495 K
MD Kinetic Energy:                   0.1890262648 H            5.1437 eV
Total MD Energy:                   -40.6612561257 H        -1106.4491 eV
Pressure:                           -0.158025E-04 au    -0.464926E+09 Pa
Gibbs free energy including KE:    -40.6612561257 H        -1106.4491 eV

--------------------------------------------------------------------------------

***  Geometry step: 76


Total Energy:                      -40.8554225676 H        -1111.7326 eV
Extrapolated to 0:                 -40.8554225676 H        -1111.7326 eV
Total Mermin free energy:          -40.8554225676 H        -1111.7326 eV
Force related energy:              -40.8554225676 H        -1111.7326 eV
Volume:                              0.833978E+04 au^3   0.123583E+04 A^3
MD Temperature:                      0.0041745561 H         1318.2190 K
MD Kinetic Energy:                   0.1941168581 H            5.2822 eV
Total MD Energy:                   -40.6613057095 H        -1106.4504 eV
Pressure:                           -0.155626E-04 au    -0.457868E+09 Pa
Gibbs free energy including KE:    -40.6613057095 H        -1106.4504 eV

--------------------------------------------------------------------------------

***  Geometry step: 77


Total Energy:                      -40.8594783564 H        -1111.8430 eV
Extrapolated to 0:                 -40.8594783564 H        -1111.8430 eV
Total Mermin free energy:          -40.8594783564 H        -1111.8430 eV
Force related energy:              -40.8594783564 H        -1111.8430 eV
Volume:                              0.833978E+04 au^3   0.123583E+04 A^3
MD Temperature:                      0.0042606855 H         1345.4165 K
MD Kinetic Energy:                   0.1981218747 H            5.3912 eV
Total MD Energy:                   -40.6613564817 H        -1106.4518 eV
Pressure:                           -0.153827E-04 au    -0.452574E+09 Pa
Gibbs free energy including KE:    -40.6613564817 H        -1106.4518 eV

--------------------------------------------------------------------------------

***  Geometry step: 78


Total Energy:                      -40.8624224804 H        -1111.9231 eV
Extrapolated to 0:                 -40.8624224804 H        -1111.9231 eV
Total Mermin free energy:          -40.8624224804 H        -1111.9231 eV
Force related energy:              -40.8624224804 H        -1111.9231 eV
Volume:                              0.833978E+04 au^3   0.123583E+04 A^3
MD Temperature:                      0.0043229032 H         1365.0632 K
MD Kinetic Energy:                   0.2010150002 H            5.4699 eV
Total MD Energy:                   -40.6614074801 H        -1106.4532 eV
Pressure:                           -0.152405E-04 au    -0.448389E+09 Pa
Gibbs free energy including KE:    -40.6614074801 H        -1106.4532 eV

--------------------------------------------------------------------------------

***  Geometry step: 79


Total Energy:                      -40.8642747913 H        -1111.9735 eV
Extrapolated to 0:                 -40.8642747913 H        -1111.9735 eV
Total Mermin free energy:          -40.8642747913 H        -1111.9735 eV
Force related energy:              -40.8642747913 H        -1111.9735 eV
Volume:                              0.833978E+04 au^3   0.123583E+04 A^3
MD Temperature:                      0.0043616354 H         1377.2939 K
MD Kinetic Energy:                   0.2028160475 H            5.5189 eV
Total MD Energy:                   -40.6614587438 H        -1106.4546 eV
Pressure:                           -0.151103E-04 au    -0.444559E+09 Pa
Gibbs free energy including KE:    -40.6614587438 H        -1106.4546 eV

--------------------------------------------------------------------------------

***  Geometry step: 80


Total Energy:                      -40.8650935526 H        -1111.9958 eV
Extrapolated to 0:                 -40.8650935526 H        -1111.9958 eV
Total Mermin free energy:          -40.8650935526 H        -1111.9958 eV
Force related energy:              -40.8650935526 H        -1111.9958 eV
Volume:                              0.833978E+04 au^3   0.123583E+04 A^3
MD Temperature:                      0.0043781690 H         1382.5148 K
MD Kinetic Energy:                   0.2035848602 H            5.5398 eV
Total MD Energy:                   -40.6615086924 H        -1106.4559 eV
Pressure:                           -0.150056E-04 au    -0.441479E+09 Pa
Gibbs free energy including KE:    -40.6615086924 H        -1106.4559 eV

--------------------------------------------------------------------------------

***  Geometry step: 81


Total Energy:                      -40.8649714623 H        -1111.9925 eV
Extrapolated to 0:                 -40.8649714623 H        -1111.9925 eV
Total Mermin free energy:          -40.8649714623 H        -1111.9925 eV
Force related energy:              -40.8649714623 H        -1111.9925 eV
Volume:                              0.833978E+04 au^3   0.123583E+04 A^3
MD Temperature:                      0.0043745175 H         1381.3617 K
MD Kinetic Energy:                   0.2034150637 H            5.5352 eV
Total MD Energy:                   -40.6615563986 H        -1106.4572 eV
Pressure:                           -0.149013E-04 au    -0.438411E+09 Pa
Gibbs free energy including KE:    -40.6615563986 H        -1106.4572 eV

--------------------------------------------------------------------------------

***  Geometry step: 82


Total Energy:                      -40.8640331988 H        -1111.9669 eV
Extrapolated to 0:                 -40.8640331988 H        -1111.9669 eV
Total Mermin free energy:          -40.8640331988 H        -1111.9669 eV
Force related energy:              -40.8640331988 H        -1111.9669 eV
Volume:                              0.833978E+04 au^3   0.123583E+04 A^3
MD Temperature:                      0.0043533332 H         1374.6722 K
MD Kinetic Energy:                   0.2024299915 H            5.5084 eV
Total MD Energy:                   -40.6616032073 H        -1106.4585 eV
Pressure:                           -0.148200E-04 au    -0.436018E+09 Pa
Gibbs free energy including KE:    -40.6616032073 H        -1106.4585 eV

--------------------------------------------------------------------------------

***  Geometry step: 83


Total Energy:                      -40.8624203907 H        -1111.9230 eV
Extrapolated to 0:                 -40.8624203907 H        -1111.9230 eV
Total Mermin free energy:          -40.8624203907 H        -1111.9230 eV
Force related energy:              -40.8624203907 H        -1111.9230 eV
Volume:                              0.833978E+04 au^3   0.123583E+04 A^3
MD Temperature:                      0.0043177030 H         1363.4211 K
MD Kinetic Energy:                   0.2007731891 H            5.4633 eV
Total MD Energy:                   -40.6616472016 H        -1106.4597 eV
Pressure:                           -0.147729E-04 au    -0.434634E+09 Pa
Gibbs free energy including KE:    -40.6616472016 H        -1106.4597 eV

--------------------------------------------------------------------------------

***  Geometry step: 84


Total Energy:                      -40.8602893245 H        -1111.8650 eV
Extrapolated to 0:                 -40.8602893245 H        -1111.8650 eV
Total Mermin free energy:          -40.8602893245 H        -1111.8650 eV
Force related energy:              -40.8602893245 H        -1111.8650 eV
Volume:                              0.833978E+04 au^3   0.123583E+04 A^3
MD Temperature:                      0.0042709736 H         1348.6652 K
MD Kinetic Energy:                   0.1986002701 H            5.4042 eV
Total MD Energy:                   -40.6616890543 H        -1106.4609 eV
Pressure:                           -0.147841E-04 au    -0.434962E+09 Pa
Gibbs free energy including KE:    -40.6616890543 H        -1106.4609 eV

--------------------------------------------------------------------------------

***  Geometry step: 85


Total Energy:                      -40.8578036006 H        -1111.7974 eV
Extrapolated to 0:                 -40.8578036006 H        -1111.7974 eV
Total Mermin free energy:          -40.8578036006 H        -1111.7974 eV
Force related energy:              -40.8578036006 H        -1111.7974 eV
Volume:                              0.833978E+04 au^3   0.123583E+04 A^3
MD Temperature:                      0.0042166674 H         1331.5167 K
MD Kinetic Energy:                   0.1960750364 H            5.3355 eV
Total MD Energy:                   -40.6617285642 H        -1106.4619 eV
Pressure:                           -0.148456E-04 au    -0.436773E+09 Pa
Gibbs free energy including KE:    -40.6617285642 H        -1106.4619 eV

--------------------------------------------------------------------------------

***  Geometry step: 86


Total Energy:                      -40.8551270253 H        -1111.7246 eV
Extrapolated to 0:                 -40.8551270253 H        -1111.7246 eV
Total Mermin free energy:          -40.8551270253 H        -1111.7246 eV
Force related energy:              -40.8551270253 H        -1111.7246 eV
Volume:                              0.833978E+04 au^3   0.123583E+04 A^3
MD Temperature:                      0.0041583079 H         1313.0882 K
MD Kinetic Energy:                   0.1933613153 H            5.2616 eV
Total MD Energy:                   -40.6617657100 H        -1106.4629 eV
Pressure:                           -0.149589E-04 au    -0.440105E+09 Pa
Gibbs free energy including KE:    -40.6617657100 H        -1106.4629 eV

--------------------------------------------------------------------------------

***  Geometry step: 87


Total Energy:                      -40.8524188588 H        -1111.6509 eV
Extrapolated to 0:                 -40.8524188588 H        -1111.6509 eV
Total Mermin free energy:          -40.8524188588 H        -1111.6509 eV
Force related energy:              -40.8524188588 H        -1111.6509 eV
Volume:                              0.833978E+04 au^3   0.123583E+04 A^3
MD Temperature:                      0.0040993107 H         1294.4584 K
MD Kinetic Energy:                   0.1906179480 H            5.1870 eV
Total MD Energy:                   -40.6618009107 H        -1106.4639 eV
Pressure:                           -0.151387E-04 au    -0.445395E+09 Pa
Gibbs free energy including KE:    -40.6618009107 H        -1106.4639 eV

--------------------------------------------------------------------------------

***  Geometry step: 88


Total Energy:                      -40.8498278440 H        -1111.5804 eV
Extrapolated to 0:                 -40.8498278440 H        -1111.5804 eV
Total Mermin free energy:          -40.8498278440 H        -1111.5804 eV
Force related energy:              -40.8498278440 H        -1111.5804 eV
Volume:                              0.833978E+04 au^3   0.123583E+04 A^3
MD Temperature:                      0.0040428713 H         1276.6363 K
MD Kinetic Energy:                   0.1879935160 H            5.1156 eV
Total MD Energy:                   -40.6618343280 H        -1106.4648 eV
Pressure:                           -0.153557E-04 au    -0.451779E+09 Pa
Gibbs free energy including KE:    -40.6618343280 H        -1106.4648 eV

--------------------------------------------------------------------------------

***  Geometry step: 89


Total Energy:                      -40.8474864648 H        -1111.5167 eV
Extrapolated to 0:                 -40.8474864648 H        -1111.5167 eV
Total Mermin free energy:          -40.8474864648 H        -1111.5167 eV
Force related energy:              -40.8474864648 H        -1111.5167 eV
Volume:                              0.833978E+04 au^3   0.123583E+04 A^3
MD Temperature:                      0.0039918247 H         1260.5170 K
MD Kinetic Energy:                   0.1856198469 H            5.0510 eV
Total MD Energy:                   -40.6618666179 H        -1106.4657 eV
Pressure:                           -0.156095E-04 au    -0.459248E+09 Pa
Gibbs free energy including KE:    -40.6618666179 H        -1106.4657 eV

--------------------------------------------------------------------------------

***  Geometry step: 90


Total Energy:                      -40.8455098392 H        -1111.4629 eV
Extrapolated to 0:                 -40.8455098392 H        -1111.4629 eV
Total Mermin free energy:          -40.8455098392 H        -1111.4629 eV
Force related energy:              -40.8455098392 H        -1111.4629 eV
Volume:                              0.833978E+04 au^3   0.123583E+04 A^3
MD Temperature:                      0.0039486297 H         1246.8772 K
MD Kinetic Energy:                   0.1836112826 H            4.9963 eV
Total MD Energy:                   -40.6618985565 H        -1106.4666 eV
Pressure:                           -0.158974E-04 au    -0.467718E+09 Pa
Gibbs free energy including KE:    -40.6618985565 H        -1106.4666 eV

--------------------------------------------------------------------------------

***  Geometry step: 91


Total Energy:                      -40.8439902618 H        -1111.4215 eV
Extrapolated to 0:                 -40.8439902618 H        -1111.4215 eV
Total Mermin free energy:          -40.8439902618 H        -1111.4215 eV
Force related energy:              -40.8439902618 H        -1111.4215 eV
Volume:                              0.833978E+04 au^3   0.123583E+04 A^3
MD Temperature:                      0.0039152743 H         1236.3444 K
MD Kinetic Energy:                   0.1820602549 H            4.9541 eV
Total MD Energy:                   -40.6619300069 H        -1106.4674 eV
Pressure:                           -0.162346E-04 au    -0.477639E+09 Pa
Gibbs free energy including KE:    -40.6619300069 H        -1106.4674 eV

--------------------------------------------------------------------------------

***  Geometry step: 92


Total Energy:                      -40.8429968362 H        -1111.3945 eV
Extrapolated to 0:                 -40.8429968362 H        -1111.3945 eV
Total Mermin free energy:          -40.8429968362 H        -1111.3945 eV
Force related energy:              -40.8429968362 H        -1111.3945 eV
Volume:                              0.833978E+04 au^3   0.123583E+04 A^3
MD Temperature:                      0.0038932356 H         1229.3851 K
MD Kinetic Energy:                   0.1810354534 H            4.9262 eV
Total MD Energy:                   -40.6619613828 H        -1106.4683 eV
Pressure:                           -0.166136E-04 au    -0.488788E+09 Pa
Gibbs free energy including KE:    -40.6619613828 H        -1106.4683 eV

--------------------------------------------------------------------------------

***  Geometry step: 93


[...]
Extrapolated to 0:                 -40.8903955178 H        -1112.6843 eV
Total Mermin free energy:          -40.8903955178 H        -1112.6843 eV
Force related energy:              -40.8903955178 H        -1112.6843 eV
Volume:                              0.833978E+04 au^3   0.123583E+04 A^3
MD Temperature:                      0.0036950617 H         1166.8068 K
MD Kinetic Energy:                   0.1718203713 H            4.6755 eV
Total MD Energy:                   -40.7185751465 H        -1108.0088 eV
Pressure:                           -0.179262E-05 au    -0.527406E+08 Pa
Gibbs free energy including KE:    -40.7185751465 H        -1108.0088 eV

--------------------------------------------------------------------------------

***  Geometry step: 979


Total Energy:                      -40.8901271625 H        -1112.6770 eV
Extrapolated to 0:                 -40.8901271625 H        -1112.6770 eV
Total Mermin free energy:          -40.8901271625 H        -1112.6770 eV
Force related energy:              -40.8901271625 H        -1112.6770 eV
Volume:                              0.833978E+04 au^3   0.123583E+04 A^3
MD Temperature:                      0.0036887612 H         1164.8173 K
MD Kinetic Energy:                   0.1715273958 H            4.6675 eV
Total MD Energy:                   -40.7185997666 H        -1108.0095 eV
Pressure:                           -0.223901E-05 au    -0.658739E+08 Pa
Gibbs free energy including KE:    -40.7185997666 H        -1108.0095 eV

--------------------------------------------------------------------------------

***  Geometry step: 980


Total Energy:                      -40.8904568542 H        -1112.6859 eV
Extrapolated to 0:                 -40.8904568542 H        -1112.6859 eV
Total Mermin free energy:          -40.8904568542 H        -1112.6859 eV
Force related energy:              -40.8904568542 H        -1112.6859 eV
Volume:                              0.833978E+04 au^3   0.123583E+04 A^3
MD Temperature:                      0.0036952909 H         1166.8792 K
MD Kinetic Energy:                   0.1718310260 H            4.6758 eV
Total MD Energy:                   -40.7186258282 H        -1108.0102 eV
Pressure:                           -0.275495E-05 au    -0.810534E+08 Pa
Gibbs free energy including KE:    -40.7186258282 H        -1108.0102 eV

--------------------------------------------------------------------------------

***  Geometry step: 981


Total Energy:                      -40.8913638710 H        -1112.7106 eV
Extrapolated to 0:                 -40.8913638710 H        -1112.7106 eV
Total Mermin free energy:          -40.8913638710 H        -1112.7106 eV
Force related energy:              -40.8913638710 H        -1112.7106 eV
Volume:                              0.833978E+04 au^3   0.123583E+04 A^3
MD Temperature:                      0.0037142056 H         1172.8520 K
MD Kinetic Energy:                   0.1727105604 H            4.6997 eV
Total MD Energy:                   -40.7186533106 H        -1108.0109 eV
Pressure:                           -0.334086E-05 au    -0.982915E+08 Pa
Gibbs free energy including KE:    -40.7186533106 H        -1108.0109 eV

--------------------------------------------------------------------------------

***  Geometry step: 982


Total Energy:                      -40.8928100720 H        -1112.7500 eV
Extrapolated to 0:                 -40.8928100720 H        -1112.7500 eV
Total Mermin free energy:          -40.8928100720 H        -1112.7500 eV
Force related energy:              -40.8928100720 H        -1112.7500 eV
Volume:                              0.833978E+04 au^3   0.123583E+04 A^3
MD Temperature:                      0.0037446592 H         1182.4684 K
MD Kinetic Energy:                   0.1741266513 H            4.7382 eV
Total MD Energy:                   -40.7186834206 H        -1108.0118 eV
Pressure:                           -0.398236E-05 au    -0.117165E+09 Pa
Gibbs free energy including KE:    -40.7186834206 H        -1108.0118 eV

--------------------------------------------------------------------------------

***  Geometry step: 983


Total Energy:                      -40.8947381684 H        -1112.8024 eV
Extrapolated to 0:                 -40.8947381684 H        -1112.8024 eV
Total Mermin free energy:          -40.8947381684 H        -1112.8024 eV
Force related energy:              -40.8947381684 H        -1112.8024 eV
Volume:                              0.833978E+04 au^3   0.123583E+04 A^3
MD Temperature:                      0.0037854237 H         1195.3408 K
MD Kinetic Energy:                   0.1760222009 H            4.7898 eV
Total MD Energy:                   -40.7187159676 H        -1108.0126 eV
Pressure:                           -0.468560E-05 au    -0.137855E+09 Pa
Gibbs free energy including KE:    -40.7187159676 H        -1108.0126 eV

--------------------------------------------------------------------------------

***  Geometry step: 984


Total Energy:                      -40.8970767631 H        -1112.8661 eV
Extrapolated to 0:                 -40.8970767631 H        -1112.8661 eV
Total Mermin free energy:          -40.8970767631 H        -1112.8661 eV
Force related energy:              -40.8970767631 H        -1112.8661 eV
Volume:                              0.833978E+04 au^3   0.123583E+04 A^3
MD Temperature:                      0.0038349515 H         1210.9805 K
MD Kinetic Energy:                   0.1783252459 H            4.8525 eV
Total MD Energy:                   -40.7187515172 H        -1108.0136 eV
Pressure:                           -0.546102E-05 au    -0.160669E+09 Pa
Gibbs free energy including KE:    -40.7187515172 H        -1108.0136 eV

--------------------------------------------------------------------------------

***  Geometry step: 985


Total Energy:                      -40.8997417803 H        -1112.9386 eV
Extrapolated to 0:                 -40.8997417803 H        -1112.9386 eV
Total Mermin free energy:          -40.8997417803 H        -1112.9386 eV
Force related energy:              -40.8997417803 H        -1112.9386 eV
Volume:                              0.833978E+04 au^3   0.123583E+04 A^3
MD Temperature:                      0.0038914295 H         1228.8148 K
MD Kinetic Energy:                   0.1809514695 H            4.9239 eV
Total MD Energy:                   -40.7187903108 H        -1108.0147 eV
Pressure:                           -0.629711E-05 au    -0.185267E+09 Pa
Gibbs free energy including KE:    -40.7187903108 H        -1108.0147 eV

--------------------------------------------------------------------------------

***  Geometry step: 986


Total Energy:                      -40.9026379789 H        -1113.0174 eV
Extrapolated to 0:                 -40.9026379789 H        -1113.0174 eV
Total Mermin free energy:          -40.9026379789 H        -1113.0174 eV
Force related energy:              -40.9026379789 H        -1113.0174 eV
Volume:                              0.833978E+04 au^3   0.123583E+04 A^3
MD Temperature:                      0.0039528126 H         1248.1980 K
MD Kinetic Energy:                   0.1838057852 H            5.0016 eV
Total MD Energy:                   -40.7188321938 H        -1108.0158 eV
Pressure:                           -0.718401E-05 au    -0.211361E+09 Pa
Gibbs free energy including KE:    -40.7188321938 H        -1108.0158 eV

--------------------------------------------------------------------------------

***  Geometry step: 987


Total Energy:                      -40.9056634328 H        -1113.0997 eV
Extrapolated to 0:                 -40.9056634328 H        -1113.0997 eV
Total Mermin free energy:          -40.9056634328 H        -1113.0997 eV
Force related energy:              -40.9056634328 H        -1113.0997 eV
Volume:                              0.833978E+04 au^3   0.123583E+04 A^3
MD Temperature:                      0.0040169081 H         1268.4377 K
MD Kinetic Energy:                   0.1867862249 H            5.0827 eV
Total MD Energy:                   -40.7188772079 H        -1108.0170 eV
Pressure:                           -0.812084E-05 au    -0.238923E+09 Pa
Gibbs free energy including KE:    -40.7188772079 H        -1108.0170 eV

--------------------------------------------------------------------------------

***  Geometry step: 988


Total Energy:                      -40.9087129716 H        -1113.1827 eV
Extrapolated to 0:                 -40.9087129716 H        -1113.1827 eV
Total Mermin free energy:          -40.9087129716 H        -1113.1827 eV
Force related energy:              -40.9087129716 H        -1113.1827 eV
Volume:                              0.833978E+04 au^3   0.123583E+04 A^3
MD Temperature:                      0.0040814561 H         1288.8204 K
MD Kinetic Energy:                   0.1897877082 H            5.1644 eV
Total MD Energy:                   -40.7189252633 H        -1108.0183 eV
Pressure:                           -0.910238E-05 au    -0.267801E+09 Pa
Gibbs free energy including KE:    -40.7189252633 H        -1108.0183 eV

--------------------------------------------------------------------------------

***  Geometry step: 989


Total Energy:                      -40.9116807706 H        -1113.2635 eV
Extrapolated to 0:                 -40.9116807706 H        -1113.2635 eV
Total Mermin free energy:          -40.9116807706 H        -1113.2635 eV
Force related energy:              -40.9116807706 H        -1113.2635 eV
Volume:                              0.833978E+04 au^3   0.123583E+04 A^3
MD Temperature:                      0.0041441873 H         1308.6293 K
MD Kinetic Energy:                   0.1927047073 H            5.2438 eV
Total MD Energy:                   -40.7189760634 H        -1108.0197 eV
Pressure:                           -0.101302E-04 au    -0.298040E+09 Pa
Gibbs free energy including KE:    -40.7189760634 H        -1108.0197 eV

--------------------------------------------------------------------------------

***  Geometry step: 990


Total Energy:                      -40.9144633245 H        -1113.3392 eV
Extrapolated to 0:                 -40.9144633245 H        -1113.3392 eV
Total Mermin free energy:          -40.9144633245 H        -1113.3392 eV
Force related energy:              -40.9144633245 H        -1113.3392 eV
Volume:                              0.833978E+04 au^3   0.123583E+04 A^3
MD Temperature:                      0.0042028795 H         1327.1628 K
MD Kinetic Energy:                   0.1954338984 H            5.3180 eV
Total MD Energy:                   -40.7190294261 H        -1108.0212 eV
Pressure:                           -0.111978E-04 au    -0.329451E+09 Pa
Gibbs free energy including KE:    -40.7190294261 H        -1108.0212 eV

--------------------------------------------------------------------------------

***  Geometry step: 991


Total Energy:                      -40.9169618674 H        -1113.4072 eV
Extrapolated to 0:                 -40.9169618674 H        -1113.4072 eV
Total Mermin free energy:          -40.9169618674 H        -1113.4072 eV
Force related energy:              -40.9169618674 H        -1113.4072 eV
Volume:                              0.833978E+04 au^3   0.123583E+04 A^3
MD Temperature:                      0.0042554128 H         1343.7515 K
MD Kinetic Energy:                   0.1978766971 H            5.3845 eV
Total MD Energy:                   -40.7190851704 H        -1108.0227 eV
Pressure:                           -0.122824E-04 au    -0.361361E+09 Pa
Gibbs free energy including KE:    -40.7190851704 H        -1108.0227 eV

--------------------------------------------------------------------------------

***  Geometry step: 992


Total Energy:                      -40.9190832076 H        -1113.4649 eV
Extrapolated to 0:                 -40.9190832076 H        -1113.4649 eV
Total Mermin free energy:          -40.9190832076 H        -1113.4649 eV
Force related energy:              -40.9190832076 H        -1113.4649 eV
Volume:                              0.833978E+04 au^3   0.123583E+04 A^3
MD Temperature:                      0.0042998138 H         1357.7722 K
MD Kinetic Energy:                   0.1999413395 H            5.4407 eV
Total MD Energy:                   -40.7191418681 H        -1108.0242 eV
Pressure:                           -0.133618E-04 au    -0.393117E+09 Pa
Gibbs free energy including KE:    -40.7191418681 H        -1108.0242 eV

--------------------------------------------------------------------------------

***  Geometry step: 993


Total Energy:                      -40.9207454682 H        -1113.5101 eV
Extrapolated to 0:                 -40.9207454682 H        -1113.5101 eV
Total Mermin free energy:          -40.9207454682 H        -1113.5101 eV
Force related energy:              -40.9207454682 H        -1113.5101 eV
Volume:                              0.833978E+04 au^3   0.123583E+04 A^3
MD Temperature:                      0.0043343030 H         1368.6630 K
MD Kinetic Energy:                   0.2015450904 H            5.4843 eV
Total MD Energy:                   -40.7192003778 H        -1108.0258 eV
Pressure:                           -0.144230E-04 au    -0.424339E+09 Pa
Gibbs free energy including KE:    -40.7192003778 H        -1108.0258 eV

--------------------------------------------------------------------------------

***  Geometry step: 994


Total Energy:                      -40.9218765389 H        -1113.5409 eV
Extrapolated to 0:                 -40.9218765389 H        -1113.5409 eV
Total Mermin free energy:          -40.9218765389 H        -1113.5409 eV
Force related energy:              -40.9218765389 H        -1113.5409 eV
Volume:                              0.833978E+04 au^3   0.123583E+04 A^3
MD Temperature:                      0.0043573674 H         1375.9462 K
MD Kinetic Energy:                   0.2026175844 H            5.5135 eV
Total MD Energy:                   -40.7192589545 H        -1108.0274 eV
Pressure:                           -0.154525E-04 au    -0.454629E+09 Pa
Gibbs free energy including KE:    -40.7192589545 H        -1108.0274 eV

--------------------------------------------------------------------------------

***  Geometry step: 995


Total Energy:                      -40.9224199813 H        -1113.5557 eV
Extrapolated to 0:                 -40.9224199813 H        -1113.5557 eV
Total Mermin free energy:          -40.9224199813 H        -1113.5557 eV
Force related energy:              -40.9224199813 H        -1113.5557 eV
Volume:                              0.833978E+04 au^3   0.123583E+04 A^3
MD Temperature:                      0.0043678097 H         1379.2436 K
MD Kinetic Energy:                   0.2031031496 H            5.5267 eV
Total MD Energy:                   -40.7193168317 H        -1108.0290 eV
Pressure:                           -0.164544E-04 au    -0.484105E+09 Pa
Gibbs free energy including KE:    -40.7193168317 H        -1108.0290 eV

--------------------------------------------------------------------------------

***  Geometry step: 996


Total Energy:                      -40.9223384255 H        -1113.5535 eV
Extrapolated to 0:                 -40.9223384255 H        -1113.5535 eV
Total Mermin free energy:          -40.9223384255 H        -1113.5535 eV
Force related energy:              -40.9223384255 H        -1113.5535 eV
Volume:                              0.833978E+04 au^3   0.123583E+04 A^3
MD Temperature:                      0.0043648272 H         1378.3018 K
MD Kinetic Energy:                   0.2029644662 H            5.5229 eV
Total MD Energy:                   -40.7193739593 H        -1108.0305 eV
Pressure:                           -0.173950E-04 au    -0.511778E+09 Pa
Gibbs free energy including KE:    -40.7193739593 H        -1108.0305 eV

--------------------------------------------------------------------------------

***  Geometry step: 997


Total Energy:                      -40.9216115283 H        -1113.5337 eV
Extrapolated to 0:                 -40.9216115283 H        -1113.5337 eV
Total Mermin free energy:          -40.9216115283 H        -1113.5337 eV
Force related energy:              -40.9216115283 H        -1113.5337 eV
Volume:                              0.833978E+04 au^3   0.123583E+04 A^3
MD Temperature:                      0.0043480115 H         1372.9918 K
MD Kinetic Energy:                   0.2021825341 H            5.5017 eV
Total MD Energy:                   -40.7194289941 H        -1108.0320 eV
Pressure:                           -0.183064E-04 au    -0.538594E+09 Pa
Gibbs free energy including KE:    -40.7194289941 H        -1108.0320 eV

--------------------------------------------------------------------------------

***  Geometry step: 998


Total Energy:                      -40.9202376750 H        -1113.4963 eV
Extrapolated to 0:                 -40.9202376750 H        -1113.4963 eV
Total Mermin free energy:          -40.9202376750 H        -1113.4963 eV
Force related energy:              -40.9202376750 H        -1113.4963 eV
Volume:                              0.833978E+04 au^3   0.123583E+04 A^3
MD Temperature:                      0.0043173161 H         1363.2990 K
MD Kinetic Energy:                   0.2007551995 H            5.4628 eV
Total MD Energy:                   -40.7194824755 H        -1108.0335 eV
Pressure:                           -0.191518E-04 au    -0.563464E+09 Pa
Gibbs free energy including KE:    -40.7194824755 H        -1108.0335 eV

--------------------------------------------------------------------------------

***  Geometry step: 999


Total Energy:                      -40.9182308787 H        -1113.4417 eV
Extrapolated to 0:                 -40.9182308787 H        -1113.4417 eV
Total Mermin free energy:          -40.9182308787 H        -1113.4417 eV
Force related energy:              -40.9182308787 H        -1113.4417 eV
Volume:                              0.833978E+04 au^3   0.123583E+04 A^3
MD Temperature:                      0.0042730793 H         1349.3301 K
MD Kinetic Energy:                   0.1986981877 H            5.4069 eV
Total MD Energy:                   -40.7195326911 H        -1108.0349 eV
Pressure:                           -0.199558E-04 au    -0.587118E+09 Pa
Gibbs free energy including KE:    -40.7195326911 H        -1108.0349 eV

--------------------------------------------------------------------------------

***  Geometry step: 1000


Total Energy:                      -40.9156252126 H        -1113.3708 eV
Extrapolated to 0:                 -40.9156252126 H        -1113.3708 eV
Total Mermin free energy:          -40.9156252126 H        -1113.3708 eV
Force related energy:              -40.9156252126 H        -1113.3708 eV
Volume:                              0.833978E+04 au^3   0.123583E+04 A^3
MD Temperature:                      0.0042160382 H         1331.3180 K
MD Kinetic Energy:                   0.1960457743 H            5.3347 eV
Total MD Energy:                   -40.7195794384 H        -1108.0361 eV
Pressure:                           -0.207194E-04 au    -0.609586E+09 Pa
Gibbs free energy including KE:    -40.7195794384 H        -1108.0361 eV

Molecular dynamics completed
MD information accumulated in md.out

--------------------------------------------------------------------------------
DFTB+ running times                          cpu [s]             wall clock [s]
--------------------------------------------------------------------------------
Pre-SCC initialisation                 +   145.64  ( 20.0%)     27.99  ( 20.2%)
SCC                                    +   243.07  ( 33.3%)     48.40  ( 35.0%)
Post-SCC processing                    +   340.08  ( 46.7%)     61.93  ( 44.8%)
--------------------------------------------------------------------------------
Missing                                +     0.06  (  0.0%)      0.01  (  0.0%)
Total                                  =   728.84  (100.0%)    138.32  (100.0%)
--------------------------------------------------------------------------------
