 vasp.5.3.5 31Mar14 (build Jul 12 2017 11:42:46) complex                        
  
 executed on Stampede2-Greg-Stati date 2019.12.09  21:10:08
 running on   64 total cores
 distrk:  each k-point on   64 cores,    1 groups
 distr:  one band on NCORES_PER_BAND=  64 cores,    1 groups


--------------------------------------------------------------------------------------------------------


 INCAR:
 POTCAR:   PAW_PBE Si 05Jan2001                   
 POTCAR:   PAW_PBE N 08Apr2002                    
 POTCAR:   PAW_PBE H 15Jun2001                    
 POTCAR:   PAW_PBE C 08Apr2002                    
 POTCAR:   PAW_PBE F 08Apr2002                    

 ----------------------------------------------------------------------------- 
|                                                                             |
|           W    W    AA    RRRRR   N    N  II  N    N   GGGG   !!!           |
|           W    W   A  A   R    R  NN   N  II  NN   N  G    G  !!!           |
|           W    W  A    A  R    R  N N  N  II  N N  N  G       !!!           |
|           W WW W  AAAAAA  RRRRR   N  N N  II  N  N N  G  GGG   !            |
|           WW  WW  A    A  R   R   N   NN  II  N   NN  G    G                |
|           W    W  A    A  R    R  N    N  II  N    N   GGGG   !!!           |
|                                                                             |
|      For optimal performance we recommend to set                            |
|        NCORE= 4 - approx SQRT( number of cores)                             |
|      NCORE specifies how many cores store one orbital (NPAR=cpu/NCORE).     |
|      This setting can  greatly improve the performance of VASP for DFT.     |
|      The default, NPAR=number of cores might be grossly inefficient         |
|      on modern multi-core architectures or massively parallel machines.     |
|      Do your own testing !!!!                                               |
|      Unfortunately you need to use the default for GW and RPA calculations. |
|      (for HF NCORE is supported but not extensively tested yet)             |
|                                                                             |
 ----------------------------------------------------------------------------- 

 POTCAR:   PAW_PBE Si 05Jan2001                   
  local pseudopotential read in
  partial core-charges read in
  atomic valenz-charges read in
  non local Contribution for L=           0  read in
    real space projection operators read in
  non local Contribution for L=           0  read in
    real space projection operators read in
  non local Contribution for L=           1  read in
    real space projection operators read in
  non local Contribution for L=           1  read in
    real space projection operators read in
    PAW grid and wavefunctions read in
 
   number of l-projection  operators is LMAX  =           4
   number of lm-projection operators is LMMAX =           8
 
 POTCAR:   PAW_PBE N 08Apr2002                    
  local pseudopotential read in
  atomic valenz-charges read in
  non local Contribution for L=           0  read in
    real space projection operators read in
  non local Contribution for L=           0  read in
    real space projection operators read in
  non local Contribution for L=           1  read in
    real space projection operators read in
  non local Contribution for L=           1  read in
    real space projection operators read in
    PAW grid and wavefunctions read in
 
   number of l-projection  operators is LMAX  =           4
   number of lm-projection operators is LMMAX =           8
 
 POTCAR:   PAW_PBE H 15Jun2001                    
  local pseudopotential read in
  atomic valenz-charges read in
  non local Contribution for L=           0  read in
    real space projection operators read in
  non local Contribution for L=           0  read in
    real space projection operators read in
  non local Contribution for L=           1  read in
    real space projection operators read in
    PAW grid and wavefunctions read in
 
   number of l-projection  operators is LMAX  =           3
   number of lm-projection operators is LMMAX =           5
 
 POTCAR:   PAW_PBE C 08Apr2002                    
  local pseudopotential read in
  atomic valenz-charges read in
  non local Contribution for L=           0  read in
    real space projection operators read in
  non local Contribution for L=           0  read in
    real space projection operators read in
  non local Contribution for L=           1  read in
    real space projection operators read in
  non local Contribution for L=           1  read in
    real space projection operators read in
    PAW grid and wavefunctions read in
 
   number of l-projection  operators is LMAX  =           4
   number of lm-projection operators is LMMAX =           8
 
 POTCAR:   PAW_PBE F 08Apr2002                    
  local pseudopotential read in
  atomic valenz-charges read in
  non local Contribution for L=           0  read in
    real space projection operators read in
  non local Contribution for L=           0  read in
    real space projection operators read in
  non local Contribution for L=           1  read in
    real space projection operators read in
  non local Contribution for L=           1  read in
    real space projection operators read in
    PAW grid and wavefunctions read in
 
   number of l-projection  operators is LMAX  =           4
   number of lm-projection operators is LMMAX =           8
 

 ----------------------------------------------------------------------------- 
|                                                                             |
|  ADVICE TO THIS USER RUNNING 'VASP/VAMP'   (HEAR YOUR MASTER'S VOICE ...):  |
|                                                                             |
|      You have a (more or less) 'large supercell' and for larger cells       |
|      it might be more efficient to use real space projection operators      |
|      So try LREAL= Auto  in the INCAR   file.                               |
|      Mind: If you want to do a very accurate calculations keep the          |
|      reciprocal projection scheme          (i.e. LREAL=.FALSE.)             |
|                                                                             |
 ----------------------------------------------------------------------------- 

 PAW_PBE Si 05Jan2001                   :
 energy of atom  1       EATOM= -103.0669
 kinetic energy error for atom=    0.0009 (will be added to EATOM!!)
 PAW_PBE N 08Apr2002                    :
 energy of atom  2       EATOM= -264.5486
 kinetic energy error for atom=    0.0253 (will be added to EATOM!!)
 PAW_PBE H 15Jun2001                    :
 energy of atom  3       EATOM=  -12.4884
 kinetic energy error for atom=    0.0045 (will be added to EATOM!!)
 PAW_PBE C 08Apr2002                    :
 energy of atom  4       EATOM= -147.1560
 kinetic energy error for atom=    0.0116 (will be added to EATOM!!)
 PAW_PBE F 08Apr2002                    :
 energy of atom  5       EATOM= -659.4942
 kinetic energy error for atom=    0.0654 (will be added to EATOM!!)
 
 
 POSCAR: Si   N    H    C    F                   
  positions in direct lattice
  No initial velocities read in
 exchange correlation table for  LEXCH =        8
   RHO(1)=    0.500       N(1)  =     2000
   RHO(2)=  100.500       N(2)  =     4000

 VTST: version 3.1, (03/28/14)

 CHAIN: initializing optimizer
 
 OPT: Using VASP Dynamics algorithm
 CHAIN: Read ICHAIN            0
 
 POSCAR: Si   N    H    C    F                   
  positions in direct lattice
  No initial velocities read in
 


--------------------------------------------------------------------------------------------------------


 ion  position               nearest neighbor table
   1  0.087  0.387  0.084- 125 1.49  50 1.72  69 1.73  57 1.76  25 2.92  15 3.01   5 3.04   9 3.04
                            18 3.06
   2  0.087  0.887  0.084- 126 1.49  49 1.72  70 1.73  58 1.76  26 2.92  16 3.01   6 3.04  10 3.04
                            17 3.06
   3  0.587  0.387  0.084- 127 1.49  52 1.72  71 1.73  59 1.76  27 2.92  13 3.01   7 3.04  11 3.04
                            20 3.06
   4  0.587  0.887  0.084- 128 1.49  51 1.72  72 1.73  60 1.76  28 2.92  14 3.01   8 3.04  12 3.04
                            19 3.06
   5  0.298  0.415  0.084- 129 1.49  73 1.73  57 1.76  53 1.76  33 2.92  22 3.01   1 3.04   9 3.04
                            13 3.09
   6  0.298  0.915  0.084- 130 1.49  74 1.73  58 1.76  54 1.76  34 2.92  21 3.01   2 3.04  10 3.04
                            14 3.09
   7  0.798  0.415  0.084- 131 1.49  75 1.73  59 1.76  55 1.76  35 2.92  24 3.01   3 3.04  11 3.04
                            15 3.09
   8  0.798  0.915  0.084- 132 1.49  76 1.73  60 1.76  56 1.76  36 2.92  23 3.01   4 3.04  12 3.04
                            16 3.09
   9  0.115  0.204  0.084- 133 1.49  63 1.71  77 1.73  57 1.76  29 2.91  17 3.03   1 3.04   5 3.04
                            23 3.06
  10  0.115  0.704  0.084- 134 1.49  64 1.71  78 1.73  58 1.76  30 2.91  18 3.03   2 3.04   6 3.04
                            24 3.06
  11  0.615  0.204  0.084- 135 1.49  61 1.71  79 1.73  59 1.76  31 2.92  19 3.03   3 3.04   7 3.04
                            21 3.06
  12  0.615  0.704  0.084- 136 1.49  62 1.71  80 1.73  60 1.76  32 2.91  20 3.03   4 3.04   8 3.04
                            22 3.06
  13  0.388  0.299  0.153-  53 1.73  71 1.74  85 1.75  65 1.75  37 2.93   3 3.01  17 3.03  21 3.03
                            33 3.08  27 3.08   5 3.09
  14  0.388  0.799  0.153-  54 1.73  72 1.74  86 1.75  66 1.75  38 2.93   4 3.01  18 3.03  22 3.03
                            34 3.08  28 3.08   6 3.09
  15  0.888  0.299  0.153-  55 1.73  69 1.74  67 1.75  87 1.75  39 2.93   1 3.01  19 3.03  23 3.03
                            35 3.08  25 3.08   7 3.09
  16  0.888  0.799  0.153-  56 1.73  70 1.74  88 1.75  68 1.75  40 2.93   2 3.01  20 3.03  24 3.03
                            36 3.08  26 3.08   8 3.09
  17  0.203  0.091  0.153-  49 1.74  77 1.74  81 1.75  65 1.75  41 2.94  13 3.03   9 3.03  21 3.03
                             2 3.06  29 3.08  26 3.09
  18  0.203  0.591  0.153-  50 1.74  78 1.74  82 1.75  66 1.75  42 2.93  14 3.03  10 3.03  22 3.03
                             1 3.06  30 3.08  25 3.08
  19  0.703  0.091  0.153-  51 1.74  79 1.74  83 1.75  67 1.75  43 2.93  15 3.03  11 3.03  23 3.03
                             4 3.06  31 3.08  28 3.09
  20  0.703  0.591  0.153-  52 1.74  80 1.74  84 1.75  68 1.75  44 2.93  16 3.03  12 3.03  24 3.03
                             3 3.06  32 3.08  27 3.09
  21  0.412  0.114  0.153-  74 1.74  61 1.74  93 1.75  65 1.75  45 2.93   6 3.01  13 3.03  17 3.03
                            11 3.06  34 3.08  31 3.08
  22  0.412  0.614  0.153-  73 1.74  62 1.74  94 1.75  66 1.75  46 2.93   5 3.01  14 3.03  18 3.03
                            12 3.06  33 3.08  32 3.08
  23  0.912  0.114  0.153-  76 1.74  63 1.74  95 1.75  67 1.75  47 2.93   8 3.01  15 3.03  19 3.03
                             9 3.06  36 3.08  29 3.08
  24  0.912  0.614  0.153-  75 1.74  64 1.74  96 1.75  68 1.75  48 2.93   7 3.01  16 3.03  20 3.03
                            10 3.06  35 3.08  30 3.08
  25  0.091  0.388  0.225- 101 1.72  69 1.74  89 1.74  82 1.74   1 2.92  33 3.02  29 3.02  42 3.04
                            15 3.08  18 3.08  39 3.09
  26  0.090  0.888  0.225- 102 1.72  70 1.74  81 1.74  90 1.74   2 2.92  34 3.02  30 3.02  41 3.04
                            16 3.08  17 3.09  40 3.09
  27  0.590  0.388  0.225- 103 1.72  71 1.74  84 1.74  91 1.75   3 2.92  35 3.02  31 3.02  44 3.04
                            13 3.08  20 3.09  37 3.09
  28  0.590  0.888  0.225- 104 1.72  72 1.74  92 1.74  83 1.74   4 2.92  32 3.02  36 3.02  43 3.04
                            14 3.08  19 3.09  38 3.09
  29  0.115  0.204  0.225- 109 1.72  77 1.74  89 1.74  95 1.75   9 2.91  33 3.01  25 3.02  47 3.04
                            17 3.08  23 3.08  41 3.09
  30  0.114  0.704  0.225- 110 1.72  78 1.74  90 1.74  96 1.74  10 2.91  34 3.01  26 3.02  48 3.04
                            18 3.08  24 3.08  42 3.09
  31  0.614  0.204  0.225- 111 1.72  79 1.74  93 1.74  91 1.75  11 2.92  35 3.02  27 3.02  45 3.04
                            19 3.08  21 3.08  43 3.09
  32  0.614  0.704  0.225- 112 1.72  80 1.74  94 1.74  92 1.74  12 2.91  36 3.01  28 3.02  46 3.04
                            20 3.08  22 3.08  44 3.09
  33  0.298  0.412  0.225- 105 1.72  73 1.74  85 1.74  89 1.74   5 2.92  29 3.01  25 3.02  37 3.04
                            22 3.08  13 3.08  46 3.09
  34  0.298  0.911  0.225- 106 1.72  74 1.74  86 1.74  90 1.74   6 2.92  30 3.01  26 3.02  38 3.04
                            21 3.08  14 3.08  45 3.09
  35  0.798  0.412  0.225- 107 1.72  75 1.74  87 1.74  91 1.74   7 2.92  31 3.02  27 3.02  39 3.05
                            24 3.08  15 3.08  48 3.09
  36  0.798  0.912  0.225- 108 1.72  76 1.74  88 1.74  92 1.74   8 2.92  32 3.01  28 3.02  40 3.04
                            23 3.08  16 3.08  47 3.09
  37  0.385  0.297  0.294- 103 1.72  97 1.74 117 1.74  85 1.74  13 2.93  41 3.00  45 3.00  33 3.04
                            27 3.09
  38  0.385  0.797  0.294- 104 1.72  98 1.74 118 1.74  86 1.74  14 2.93  42 3.00  46 3.00  34 3.04
                            28 3.09
  39  0.885  0.297  0.294- 101 1.72  99 1.74  87 1.74 119 1.74  15 2.93  47 3.00  43 3.00  35 3.05
                            25 3.09
  40  0.885  0.797  0.294- 102 1.72 100 1.74 120 1.74  88 1.74  16 2.93  44 3.00  48 3.00  36 3.04
                            26 3.09
  41  0.205  0.089  0.294- 109 1.72  97 1.74 113 1.74  81 1.74  17 2.94  45 2.99  37 3.00  26 3.04
                            29 3.09
  42  0.205  0.589  0.294- 110 1.72  98 1.74 114 1.74  82 1.74  18 2.93  46 3.00  38 3.00  25 3.04
                            30 3.09
  43  0.705  0.089  0.294- 111 1.72  99 1.74 115 1.74  83 1.74  19 2.93  47 3.00  39 3.00  28 3.04
                            31 3.09
  44  0.705  0.589  0.294- 112 1.72 100 1.74 116 1.74  84 1.74  20 2.93  40 3.00  48 3.00  27 3.04
                            32 3.09
  45  0.413  0.117  0.294- 106 1.72 121 1.73  97 1.73  93 1.74  21 2.93  41 2.99  37 3.00  31 3.04
                            34 3.09
  46  0.413  0.617  0.294- 105 1.72  98 1.74 122 1.74  94 1.74  22 2.93  42 3.00  38 3.00  32 3.04
                            33 3.09
  47  0.913  0.117  0.294- 108 1.72  99 1.74 123 1.74  95 1.74  23 2.93  39 3.00  43 3.00  29 3.04
                            36 3.09
  48  0.913  0.618  0.294- 107 1.73 100 1.74 124 1.74  96 1.74  24 2.93  40 3.00  44 3.00  30 3.04
                            35 3.09
  49  0.165  0.015  0.084- 137 1.02   2 1.72  17 1.74
  50  0.165  0.515  0.084- 138 1.02   1 1.72  18 1.74
  51  0.665  0.015  0.084- 139 1.02   4 1.72  19 1.74
  52  0.665  0.515  0.084- 140 1.02   3 1.72  20 1.74
  53  0.352  0.337  0.084- 141 1.02  13 1.73   5 1.76
  54  0.352  0.837  0.084- 142 1.02  14 1.73   6 1.76
  55  0.852  0.337  0.084- 143 1.02  15 1.73   7 1.76
  56  0.852  0.837  0.084- 144 1.02  16 1.73   8 1.76
  57  0.167  0.335  0.084-   5 1.76   9 1.76   1 1.76
  58  0.167  0.835  0.084-   6 1.76  10 1.76   2 1.76
  59  0.667  0.335  0.084-   7 1.76  11 1.76   3 1.76
  60  0.667  0.835  0.084-   8 1.76  12 1.76   4 1.76
  61  0.487  0.150  0.084- 145 1.02  11 1.71  21 1.74
  62  0.487  0.650  0.084- 146 1.02  12 1.71  22 1.74
  63  0.987  0.150  0.084- 147 1.02   9 1.71  23 1.74
  64  0.987  0.650  0.084- 148 1.02  10 1.71  24 1.74
  65  0.334  0.168  0.149-  21 1.75  13 1.75  17 1.75
  66  0.334  0.668  0.149-  22 1.75  14 1.75  18 1.75
  67  0.834  0.168  0.149-  23 1.75  15 1.75  19 1.75
  68  0.834  0.668  0.149-  24 1.75  20 1.75  16 1.75
  69  0.018  0.354  0.155-   1 1.73  15 1.74  25 1.74
  70  0.018  0.854  0.155-   2 1.73  16 1.74  26 1.74
  71  0.518  0.354  0.155-   3 1.73  13 1.74  27 1.74
  72  0.518  0.854  0.155-   4 1.73  14 1.74  28 1.74
  73  0.336  0.484  0.155-   5 1.73  22 1.74  33 1.74
  74  0.336  0.984  0.155-   6 1.73  21 1.74  34 1.74
  75  0.836  0.484  0.155-   7 1.73  24 1.74  35 1.74
  76  0.836  0.984  0.155-   8 1.73  23 1.74  36 1.74
  77  0.148  0.166  0.154-   9 1.73  17 1.74  29 1.74
  78  0.148  0.666  0.154-  10 1.73  18 1.74  30 1.74
  79  0.648  0.166  0.154-  11 1.73  19 1.74  31 1.74
  80  0.648  0.666  0.154-  12 1.73  20 1.74  32 1.74
  81  0.167  0.019  0.223-  41 1.74  26 1.74  17 1.75
  82  0.167  0.519  0.223-  42 1.74  25 1.74  18 1.75
  83  0.667  0.019  0.223-  43 1.74  28 1.74  19 1.75
  84  0.667  0.519  0.223-  44 1.74  27 1.74  20 1.75
  85  0.352  0.335  0.224-  37 1.74  33 1.74  13 1.75
  86  0.352  0.835  0.224-  38 1.74  34 1.74  14 1.75
  87  0.852  0.335  0.224-  39 1.74  35 1.74  15 1.75
  88  0.852  0.835  0.224-  40 1.74  36 1.74  16 1.75
  89  0.168  0.335  0.230-  25 1.74  33 1.74  29 1.74
  90  0.167  0.834  0.230-  34 1.74  30 1.74  26 1.74
  91  0.668  0.334  0.230-  35 1.74  31 1.75  27 1.75
  92  0.668  0.835  0.230-  36 1.74  28 1.74  32 1.74
  93  0.484  0.149  0.224-  45 1.74  31 1.74  21 1.75
  94  0.484  0.650  0.224-  46 1.74  32 1.74  22 1.75
  95  0.984  0.150  0.224-  47 1.74  29 1.75  23 1.75
  96  0.984  0.650  0.224-  48 1.74  30 1.74  24 1.75
  97  0.335  0.168  0.301-  45 1.73  41 1.74  37 1.74
  98  0.334  0.668  0.301-  42 1.74  46 1.74  38 1.74
  99  0.835  0.168  0.301-  39 1.74  43 1.74  47 1.74
 100  0.834  0.668  0.301-  48 1.74  44 1.74  40 1.74
 101  0.014  0.348  0.292- 149 1.03  25 1.72  39 1.72
 102  0.014  0.848  0.292- 150 1.03  26 1.72  40 1.72
 103  0.514  0.348  0.292- 151 1.03  27 1.72  37 1.72
 104  0.514  0.848  0.292- 152 1.03  28 1.72  38 1.72
 105  0.335  0.489  0.292- 153 1.03  33 1.72  46 1.72
 106  0.335  0.988  0.292- 154 1.03  34 1.72  45 1.72
 107  0.835  0.489  0.292- 155 1.03  35 1.72  48 1.73
 108  0.835  0.988  0.292- 156 1.03  36 1.72  47 1.72
 109  0.154  0.167  0.292- 157 1.03  29 1.72  41 1.72
 110  0.154  0.667  0.292- 158 1.03  30 1.72  42 1.72
 111  0.654  0.167  0.292- 159 1.03  31 1.72  43 1.72
 112  0.654  0.667  0.292- 160 1.03  32 1.72  44 1.72
 113  0.173  0.012  0.362- 177 1.02 166 1.02  41 1.74
 114  0.173  0.512  0.362- 178 1.02 165 1.02  42 1.74
 115  0.673  0.012  0.362- 179 1.02 168 1.02  43 1.74
 116  0.673  0.512  0.362- 180 1.02 167 1.02  44 1.74
 117  0.340  0.330  0.362- 173 1.02 161 1.02  37 1.74
 118  0.340  0.829  0.362- 174 1.02 162 1.02  38 1.74
 119  0.842  0.331  0.362- 175 1.02 163 1.02  39 1.74
 120  0.840  0.829  0.362- 176 1.02 164 1.02  40 1.74
 121  0.490  0.161  0.361- 181 1.02 171 1.02  45 1.73
 122  0.490  0.663  0.362- 182 1.02 172 1.02  46 1.74
 123  0.991  0.162  0.362- 183 1.02 169 1.02  47 1.74
 124  0.990  0.662  0.362- 184 1.02 170 1.02  48 1.74
 125  0.020  0.351  0.027-   1 1.49
 126  0.020  0.851  0.027-   2 1.49
 127  0.520  0.351  0.027-   3 1.49
 128  0.520  0.851  0.027-   4 1.49
 129  0.330  0.482  0.027-   5 1.49
 130  0.330  0.982  0.027-   6 1.49
 131  0.830  0.482  0.027-   7 1.49
 132  0.830  0.982  0.027-   8 1.49
 133  0.151  0.173  0.027-   9 1.49
 134  0.151  0.673  0.027-  10 1.49
 135  0.651  0.173  0.027-  11 1.49
 136  0.651  0.673  0.027-  12 1.49
 137  0.204  0.049  0.043-  49 1.02
 138  0.204  0.549  0.043-  50 1.02
 139  0.704  0.049  0.043-  51 1.02
 140  0.704  0.549  0.043-  52 1.02
 141  0.339  0.292  0.045-  53 1.02
 142  0.339  0.792  0.045-  54 1.02
 143  0.839  0.292  0.045-  55 1.02
 144  0.839  0.792  0.045-  56 1.02
 145  0.453  0.158  0.044-  61 1.02
 146  0.453  0.658  0.044-  62 1.02
 147  0.953  0.158  0.044-  63 1.02
 148  0.953  0.658  0.044-  64 1.02
 149  0.037  0.312  0.324- 101 1.03
 150  0.037  0.813  0.324- 102 1.03
 151  0.536  0.312  0.324- 103 1.03
 152  0.536  0.812  0.324- 104 1.03
 153  0.276  0.466  0.324- 105 1.03
 154  0.276  0.966  0.324- 106 1.03
 155  0.776  0.467  0.323- 107 1.03
 156  0.776  0.966  0.324- 108 1.03
 157  0.191  0.226  0.324- 109 1.03
 158  0.190  0.726  0.324- 110 1.03
 159  0.690  0.225  0.324- 111 1.03
 160  0.690  0.726  0.324- 112 1.03
 161  0.361  0.404  0.366- 117 1.02
 162  0.360  0.903  0.366- 118 1.02
 163  0.864  0.405  0.365- 119 1.02
 164  0.860  0.903  0.367- 120 1.02
 165  0.099  0.458  0.366- 114 1.02
 166  0.099  0.959  0.367- 113 1.02
 167  0.598  0.459  0.367- 116 1.02
 168  0.599  0.958  0.366- 115 1.02
 169  0.044  0.142  0.366- 123 1.02
 170  0.044  0.642  0.366- 124 1.02
 171  0.542  0.139  0.367- 121 1.02
 172  0.544  0.642  0.366- 122 1.02
 173  0.351  0.303  0.404- 117 1.02
 174  0.347  0.800  0.404- 118 1.02
 175  0.856  0.306  0.404- 119 1.02
 176  0.847  0.800  0.404- 120 1.02
 177  0.203  0.049  0.404- 113 1.02
 178  0.202  0.549  0.404- 114 1.02
 179  0.703  0.049  0.404- 115 1.02
 180  0.702  0.550  0.404- 116 1.02
 181  0.457  0.162  0.404- 121 1.02
 182  0.453  0.654  0.404- 122 1.02
 183  0.954  0.154  0.404- 123 1.02
 184  0.954  0.655  0.404- 124 1.02
 185  0.664  0.330  0.401- 188 1.09
 186  0.735  0.400  0.470- 188 1.10
 187  0.665  0.264  0.472- 188 1.10
 188  0.667  0.332  0.454- 185 1.09 186 1.10 187 1.10 189 1.41
 189  0.582  0.334  0.478- 188 1.41
 

IMPORTANT INFORMATION: All symmetrisations will be switched off!
NOSYMM: (Re-)initialisation of all symmetry stuff for point group C_1.

 
 
 KPOINTS: Automatic Mesh                          

Automatic generation of k-mesh.
Space group operators:
 irot       det(A)        alpha          n_x          n_y          n_z        tau_x        tau_y        tau_z
    1     1.000000     0.000000     1.000000     0.000000     0.000000     0.000000     0.000000     0.000000
 
 Subroutine IBZKPT returns following result:
 ===========================================
 
 Found      4 irreducible k-points:
 
 Following reciprocal coordinates:
            Coordinates               Weight
  0.000000  0.000000  0.000000      1.000000
  0.500000  0.000000  0.000000      1.000000
  0.000000  0.500000  0.000000      1.000000
  0.500000  0.500000  0.000000      1.000000
 
 Following cartesian coordinates:
            Coordinates               Weight
  0.000000  0.000000  0.000000      1.000000
  0.032610  0.018827  0.000000      1.000000
  0.000000  0.037654  0.000000      1.000000
  0.032610  0.056482  0.000000      1.000000
 
 
 Subroutine IBZKPT_HF returns following result:
 ==============================================
 
 Found      4 k-points in 1st BZ
 the following      4 k-points will be used (e.g. in the exchange kernel)
 Following reciprocal coordinates:   # in IRBZ
  0.000000  0.000000  0.000000       1 t-inv F
  0.500000  0.000000  0.000000       2 t-inv F
  0.000000  0.500000  0.000000       3 t-inv F
  0.500000  0.500000  0.000000       4 t-inv F


--------------------------------------------------------------------------------------------------------




 Dimension of arrays:
   k-points           NKPTS =      4   k-points in BZ     NKDIM =      4   number of bands    NBANDS=    418
   number of dos      NEDOS =    600   number of ions     NIONS =    189
   non local maximal  LDIM  =      4   non local SUM 2l+1 LMDIM =      8
   total plane-waves  NPLWV = 691200
   max r-space proj   IRMAX =      1   max aug-charges    IRDMAX=   5676
   dimension x,y,z NGX =    80 NGY =   80 NGZ =  108
   dimension x,y,z NGXF=   160 NGYF=  160 NGZF=  216
   support grid    NGXF=   160 NGYF=  160 NGZF=  216
   ions per type =              48  76  63   1   1
 NGX,Y,Z   is equivalent  to a cutoff of   8.67,  8.67,  8.66 a.u.
 NGXF,Y,Z  is equivalent  to a cutoff of  17.35, 17.35, 17.33 a.u.


 I would recommend the setting:
   dimension x,y,z NGX =    80 NGY =   80 NGZ =  108
 SYSTEM =  SiN slab, N rich, Methyl radical        
 POSCAR =  Si   N    H    C    F                   

 Startparameter for this run:
   NWRITE =      0    write-flag & timer
   PREC   = normal    normal or accurate (medium, high low for compatibility)
   ISTART =      0    job   : 0-new  1-cont  2-samecut
   ICHARG =      2    charge: 1-file 2-atom 10-const
   ISPIN  =      1    spin polarized calculation?
   LNONCOLLINEAR =      F non collinear calculations
   LSORBIT =      F    spin-orbit coupling
   INIWAV =      1    electr: 0-lowe 1-rand  2-diag
   LASPH  =      F    aspherical Exc in radial PAW
   METAGGA=      F    non-selfconsistent MetaGGA calc.
   LSOL =      F    Solvation

 Electronic Relaxation 1
   ENCUT  =  450.0 eV  33.07 Ry    5.75 a.u.  26.52 26.52 35.84*2*pi/ulx,y,z
   ENINI  =  450.0     initial cutoff
   ENAUG  =  644.9 eV  augmentation charge cutoff
   NELM   =    100;   NELMIN=  4; NELMDL=-12     # of ELM steps 
   EDIFF  = 0.1E-05   stopping-criterion for ELM
   LREAL  =      F    real-space projection
   NLSPLINE    = F    spline interpolate recip. space projectors
   LCOMPAT=      F    compatible to vasp.4.4
   GGA_COMPAT  = T    GGA compatible to vasp.4.4-vasp.4.6
   LMAXPAW     = -100 max onsite density
   LMAXMIX     =    2 max onsite mixed and CHGCAR
   VOSKOWN=      0    Vosko Wilk Nusair interpolation
   ROPT   =    0.00000   0.00000   0.00000   0.00000
   ROPT   =    0.00000
 Ionic relaxation
   EDIFFG = -.1E-01   stopping-criterion for IOM
   NSW    =   2305    number of steps for IOM
   NBLOCK =      1;   KBLOCK =      1    inner block; outer block 
   IBRION =      5    ionic relax: 0-MD 1-quasi-New 2-CG
   NFREE  =      2    steps in history (QN), initial steepest desc. (CG)
   ISIF   =      2    stress and relaxation
   IWAVPR =     11    prediction:  0-non 1-charg 2-wave 3-comb
   ISYM   =      0    0-nonsym 1-usesym 2-fastsym
   LCORR  =      T    Harris-Foulkes like correction to forces

   POTIM  = 0.0150    time-step for ionic-motion
   TEIN   =    0.0    initial temperature
   TEBEG  =    0.0;   TEEND  =   0.0 temperature during run
   SMASS  =  -3.00    Nose mass-parameter (am)
   estimated Nose-frequenzy (Omega)   =  0.10E-29 period in steps =****** mass=  -0.537E-26a.u.
   SCALEE = 1.0000    scale energy and forces
   NPACO  =    256;   APACO  = 16.0  distance and # of slots for P.C.
   PSTRESS=    0.0 pullay stress

  Mass of Ions in am
   POMASS =  28.09 14.00  1.00 12.01 19.00
  Ionic Valenz
   ZVAL   =   4.00  5.00  1.00  4.00  7.00
  Atomic Wigner-Seitz radii
   RWIGS  =  -1.00 -1.00 -1.00 -1.00 -1.00
  virtual crystal weights 
   VCA    =   1.00  1.00  1.00  1.00  1.00
   NELECT =     646.0000    total number of electrons
   NUPDOWN=      -1.0000    fix difference up-down

 DOS related values:
   EMIN   = -10.00;   EMAX   = 10.00  energy-range for DOS
   EFERMI =   0.00
   ISMEAR =     0;   SIGMA  =   0.05  broadening in eV -4-tet -1-fermi 0-gaus

 Electronic relaxation 2 (details)
   IALGO  =     48    algorithm
   LDIAG  =      T    sub-space diagonalisation (order eigenvalues)
   LSUBROT=      F    optimize rotation matrix (better conditioning)
   TURBO    =      0    0=normal 1=particle mesh
   IRESTART =      0    0=no restart 2=restart with 2 vectors
   NREBOOT  =      0    no. of reboots
   NMIN     =      0    reboot dimension
   EREF     =   0.00    reference energy to select bands
   IMIX   =      4    mixing-type and parameters
     AMIX     =   0.40;   BMIX     =  1.00
     AMIX_MAG =   1.60;   BMIX_MAG =  1.00
     AMIN     =   0.10
     WC   =   100.;   INIMIX=   1;  MIXPRE=   1;  MAXMIX= -45

 Intra band minimization:
   WEIMIN = 0.0010     energy-eigenvalue tresh-hold
   EBREAK =  0.60E-09  absolut break condition
   DEPER  =   0.30     relativ break condition  

   TIME   =   0.40     timestep for ELM

  volume/ion in A,a.u.               =      22.32       150.65
  Fermi-wavevector in a.u.,A,eV,Ry     =   0.875800  1.655022 10.436014  0.767025
  Thomas-Fermi vector in A             =   1.995521
 
 Write flags
   LWAVE  =      F    write WAVECAR
   LCHARG =      F    write CHGCAR
   LVTOT  =      F    write LOCPOT, total local potential
   LVHAR  =      F    write LOCPOT, Hartree potential only
   LELF   =      F    write electronic localiz. function (ELF)
   LORBIT =     11    0 simple, 1 ext, 2 COOP (PROOUT)


 Dipole corrections
   LMONO  =      F    monopole corrections only (constant potential shift)
   LDIPOL =      F    correct potential (dipole corrections)
   IDIPOL =      0    1-x, 2-y, 3-z, 4-all directions 
   EPSILON=  1.0000000 bulk dielectric constant

 Exchange correlation treatment:
   GGA     =    --    GGA type
   LEXCH   =     8    internal setting for exchange type
   VOSKOWN=      0    Vosko Wilk Nusair interpolation
   LHFCALC =     F    Hartree Fock is set to
   LHFONE  =     F    Hartree Fock one center treatment
   AEXX    =    0.0000 exact exchange contribution

 Linear response parameters
   LEPSILON=     F    determine dielectric tensor
   LRPA    =     F    only Hartree local field effects (RPA)
   LNABLA  =     F    use nabla operator in PAW spheres
   LVEL    =     F    velocity operator in full k-point grid
   LINTERFAST=   F  fast interpolation
   KINTER  =     0    interpolate to denser k-point grid
   CSHIFT  =0.1000    complex shift for real part using Kramers Kronig
   OMEGAMAX=  -1.0    maximum frequency
   DEG_THRESHOLD= 0.2000000E-02 threshold for treating states as degnerate
   RTIME   =    0.100 relaxation time in fs

 Orbital magnetization related:
   ORBITALMAG=     F  switch on orbital magnetization
   LCHIMAG   =     F  perturbation theory with respect to B field
   DQ        =  0.001000  dq finite difference perturbation B field



--------------------------------------------------------------------------------------------------------


 finite differences
   using selective dynamics as specified on POSCAR
 charge density and potential will be updated during run
 non-spin polarized calculation
 RMM-DIIS sequential band-by-band
 perform sub-space diagonalisation
    before iterative eigenvector-optimisation
 modified Broyden-mixing scheme, WC =      100.0
 initial mixing is a Kerker type mixing with AMIX =  0.4000 and BMIX =      1.0000
 Hartree-type preconditioning will be used
 using additional bands           95
 reciprocal scheme for non local part
 use partial core corrections
 calculate Harris-corrections to forces 
   (improved forces if not selfconsistent)
 use gradient corrections 
 use of overlap-Matrix (Vanderbilt PP)
 Gauss-broadening in eV      SIGMA  =   0.05


--------------------------------------------------------------------------------------------------------


  energy-cutoff  :      450.00
  volume of cell :     4219.32
      direct lattice vectors                 reciprocal lattice vectors
    15.332900672  0.000000000  0.000000000     0.065219232  0.037654341  0.000000000
    -7.666450116 13.278681116  0.000000000     0.000000000  0.075308684  0.000000000
     0.000000000  0.000000000 20.723500000     0.000000000  0.000000000  0.048254397

  length of vectors
    15.332900672 15.332900233 20.723500000     0.075308682  0.075308684  0.048254397


 
 k-points in units of 2pi/SCALE and weight: Automatic Mesh                          
   0.00000000  0.00000000  0.00000000       0.250
   0.03260962  0.01882717  0.00000000       0.250
   0.00000000  0.03765434  0.00000000       0.250
   0.03260962  0.05648151  0.00000000       0.250
 
 k-points in reciprocal lattice and weights: Automatic Mesh                          
   0.00000000  0.00000000  0.00000000       0.250
   0.50000000  0.00000000  0.00000000       0.250
   0.00000000  0.50000000  0.00000000       0.250
   0.50000000  0.50000000  0.00000000       0.250
 
 position of ions in fractional coordinates (direct lattice) 
   0.08698723  0.38664329  0.08422414
   0.08698721  0.88664325  0.08422414
   0.58698727  0.38664329  0.08422414
   0.58698725  0.88664325  0.08422414
   0.29800015  0.41484097  0.08422414
   0.29800013  0.91484093  0.08422414
   0.79800019  0.41484097  0.08422414
   0.79800017  0.91484093  0.08422414
   0.11516485  0.20380021  0.08422419
   0.11516483  0.70380017  0.08422419
   0.61516489  0.20380021  0.08422419
   0.61516487  0.70380017  0.08422419
   0.38781862  0.29869687  0.15297246
   0.38776644  0.79871017  0.15297705
   0.88784532  0.29873304  0.15296489
   0.88781204  0.79871630  0.15296428
   0.20312215  0.09058502  0.15263936
   0.20306630  0.59058973  0.15263696
   0.70311870  0.09060070  0.15263795
   0.70307212  0.59059526  0.15262791
   0.41165154  0.11396994  0.15287915
   0.41163083  0.61406520  0.15289502
   0.91173222  0.11403573  0.15292873
   0.91164025  0.61403468  0.15291065
   0.09067285  0.38791408  0.22493778
   0.09043501  0.88797283  0.22501324
   0.59044180  0.38791619  0.22501447
   0.59041980  0.88789111  0.22500388
   0.11460975  0.20416427  0.22486345
   0.11438373  0.70409411  0.22486952
   0.61432706  0.20399763  0.22489633
   0.61435167  0.70418938  0.22480484
   0.29811137  0.41165756  0.22495828
   0.29782152  0.91148275  0.22492661
   0.79799998  0.41160508  0.22503897
   0.79798723  0.91154913  0.22496468
   0.38481910  0.29733236  0.29446582
   0.38479430  0.79732863  0.29444509
   0.88517278  0.29706049  0.29426652
   0.88477817  0.79725135  0.29444293
   0.20521883  0.08918882  0.29425379
   0.20508798  0.58916586  0.29422101
   0.70530866  0.08898989  0.29419719
   0.70491264  0.58927732  0.29417321
   0.41291796  0.11714004  0.29424399
   0.41314654  0.61746696  0.29433405
   0.91337483  0.11727266  0.29434250
   0.91315725  0.61753487  0.29433759
   0.16507244  0.01485215  0.08422409
   0.16507242  0.51485211  0.08422409
   0.66507248  0.01485215  0.08422409
   0.66507240  0.51485211  0.08422409
   0.35194485  0.33682675  0.08422409
   0.35194487  0.83682678  0.08422409
   0.85194483  0.33682675  0.08422409
   0.85194492  0.83682678  0.08422409
   0.16674376  0.33510052  0.08422414
   0.16674374  0.83510048  0.08422414
   0.66674373  0.33510052  0.08422414
   0.66674372  0.83510048  0.08422414
   0.48696201  0.14997544  0.08422414
   0.48696200  0.64997539  0.08422414
   0.98696206  0.14997544  0.08422414
   0.98696198  0.64997539  0.08422414
   0.33429589  0.16763434  0.14905534
   0.33422255  0.66764604  0.14905230
   0.83430830  0.16766971  0.14915416
   0.83424375  0.66762441  0.14906707
   0.01818589  0.35398084  0.15493727
   0.01815328  0.85398109  0.15493046
   0.51821606  0.35393986  0.15493126
   0.51814600  0.85400375  0.15493163
   0.33624745  0.48379378  0.15477009
   0.33613404  0.98370665  0.15476831
   0.83616579  0.48369495  0.15483766
   0.83623904  0.98376225  0.15479916
   0.14829403  0.16620688  0.15444228
   0.14818078  0.66615579  0.15447237
   0.64832787  0.16628125  0.15447794
   0.64821155  0.66618492  0.15445874
   0.16681081  0.01866852  0.22345223
   0.16675330  0.51863280  0.22344442
   0.66686684  0.01860721  0.22342872
   0.66681229  0.51862890  0.22343908
   0.35237718  0.33530047  0.22370848
   0.35219835  0.83518080  0.22371020
   0.85241478  0.33531052  0.22382352
   0.85226316  0.83518298  0.22371645
   0.16771351  0.33457020  0.22952502
   0.16742019  0.83446967  0.22956986
   0.66757815  0.33449798  0.22991294
   0.66755725  0.83459924  0.22956872
   0.48363650  0.14948514  0.22352076
   0.48363154  0.64981493  0.22356109
   0.98381412  0.14967617  0.22358765
   0.98361391  0.64961780  0.22360432
   0.33452554  0.16800316  0.30096330
   0.33434918  0.66798438  0.30108821
   0.83456710  0.16781946  0.30115878
   0.83426506  0.66787302  0.30107125
   0.01397392  0.34809249  0.29194632
   0.01364610  0.84846793  0.29199633
   0.51369183  0.34839310  0.29193760
   0.51370287  0.84849511  0.29202811
   0.33533929  0.48862902  0.29184312
   0.33515259  0.98838070  0.29177686
   0.83529566  0.48855108  0.29203570
   0.83540590  0.98847121  0.29189489
   0.15423962  0.16704342  0.29182152
   0.15388537  0.66683349  0.29185262
   0.65434075  0.16679020  0.29167901
   0.65393866  0.66704502  0.29173010
   0.17309941  0.01217485  0.36187016
   0.17288597  0.51197353  0.36177686
   0.67301929  0.01206097  0.36188244
   0.67255801  0.51244641  0.36185435
   0.34014210  0.32950270  0.36218012
   0.33974114  0.82940803  0.36204011
   0.84183458  0.33061905  0.36236294
   0.83970387  0.82923525  0.36207668
   0.49028920  0.16149348  0.36140514
   0.49031342  0.66250762  0.36190945
   0.99056577  0.16222669  0.36192218
   0.99023028  0.66240924  0.36193538
   0.02025307  0.35147444  0.02653456
   0.02025309  0.85147447  0.02653456
   0.52025304  0.35147444  0.02653456
   0.52025306  0.85147447  0.02653456
   0.33031972  0.48155528  0.02653123
   0.33031971  0.98155524  0.02653123
   0.83031977  0.48155528  0.02653123
   0.83031969  0.98155524  0.02653123
   0.15105443  0.17266135  0.02651487
   0.15105442  0.67266131  0.02651487
   0.65105448  0.17266135  0.02651487
   0.65105446  0.67266131  0.02651487
   0.20411443  0.04879942  0.04338635
   0.20411446  0.54879946  0.04338635
   0.70411441  0.04879942  0.04338635
   0.70411443  0.54879946  0.04338635
   0.33916985  0.29238612  0.04484440
   0.33916983  0.79238607  0.04484440
   0.83916983  0.29238612  0.04484440
   0.83916987  0.79238607  0.04484440
   0.45338351  0.15843765  0.04423085
   0.45338349  0.65843761  0.04423085
   0.95338355  0.15843765  0.04423085
   0.95338347  0.65843761  0.04423085
   0.03676982  0.31159919  0.32361471
   0.03672495  0.81255361  0.32390776
   0.53616003  0.31165796  0.32355150
   0.53648291  0.81213918  0.32382099
   0.27636532  0.46568952  0.32377391
   0.27626814  0.96556253  0.32376596
   0.77583180  0.46657431  0.32343798
   0.77639987  0.96556201  0.32378985
   0.19051698  0.22604004  0.32373207
   0.19022032  0.72598807  0.32363272
   0.68997298  0.22538043  0.32378157
   0.68996127  0.72600609  0.32366246
   0.36078998  0.40368268  0.36588317
   0.36019135  0.90343521  0.36638794
   0.86404882  0.40541352  0.36480511
   0.86039552  0.90330402  0.36652080
   0.09895581  0.45809435  0.36595921
   0.09901491  0.95901211  0.36654868
   0.59840872  0.45943044  0.36668626
   0.59901989  0.95844302  0.36628439
   0.04442886  0.14208635  0.36591565
   0.04405781  0.64230073  0.36626348
   0.54189674  0.13875759  0.36682706
   0.54364695  0.64171415  0.36620651
   0.35123778  0.30258028  0.40446079
   0.34742972  0.80025559  0.40435983
   0.85627718  0.30570389  0.40439791
   0.84715931  0.79984170  0.40436093
   0.20312140  0.04903393  0.40405884
   0.20197190  0.54861783  0.40415506
   0.70262630  0.04875542  0.40416884
   0.70156841  0.54979771  0.40405910
   0.45713834  0.16219168  0.40374871
   0.45327425  0.65435684  0.40421230
   0.95361263  0.15364072  0.40431660
   0.95372191  0.65539115  0.40428757
   0.66363085  0.33021901  0.40090591
   0.73490053  0.39970537  0.47043322
   0.66514838  0.26369802  0.47214740
   0.66695199  0.33174348  0.45364358
   0.58184086  0.33395422  0.47784939
 
 position of ions in cartesian coordinates  (Angst):
  -1.63041500  5.13411300  1.74541900
  -5.46364000 11.77345300  1.74541900
   6.03603600  5.13411300  1.74541900
   2.20281100 11.77345300  1.74541900
   1.38884900  5.50854100  1.74541900
  -2.44437600 12.14788100  1.74541900
   9.05530000  5.50854100  1.74541900
   5.22207500 12.14788100  1.74541900
   0.20338700  2.70619800  1.74542000
  -3.62983800  9.34553800  1.74542000
   7.86983800  2.70619800  1.74542000
   4.03661300  9.34553800  1.74542000
   3.65643976  3.96630055  3.17012484
  -0.17768745 10.60581767  3.17021983
  11.32302212  3.96678081  3.16996784
   7.48941513 10.60589910  3.16995526
   2.41998627  1.20284953  3.16322172
  -1.41413140  7.84225274  3.16317213
  10.08626347  1.20305779  3.16319260
   6.25236591  7.84232617  3.16298444
   5.43806737  1.51337053  3.16819111
   1.60379439  8.15397602  3.16851987
  13.10525039  1.51424407  3.16921846
   9.27062318  8.15357073  3.16884388
  -1.58364610  5.15098736  4.66149802
  -5.42096837 11.79110801  4.66306185
   6.07924527  5.15101543  4.66308742
   2.24587530 11.79002292  4.66286795
   0.19208472  2.71103229  4.65995780
  -3.64406801  9.34944123  4.66008341
   7.85547813  2.70881946  4.66063917
   4.02116031  9.35070622  4.65874320
   1.41495978  5.46626951  4.66192302
  -2.42136921 12.10328879  4.66126665
   9.08010461  5.46557259  4.66359508
   5.24711307 12.10417023  4.66205550
   3.62090938  3.94818156  6.10236251
  -0.21266735 10.58747268  6.10193274
  11.29486693  3.94457157  6.09823228
   7.45412808 10.58644639  6.10188807
   2.46283827  1.18430994  6.09796833
  -1.37221712  7.82334561  6.09728912
  10.13219110  1.18166839  6.09679550
   6.29069033  7.82482563  6.09629858
   5.43318178  1.55546523  6.09776532
   1.60095516  8.19914693  6.09963166
  13.10562058  1.55722628  6.09980678
   9.26704912  8.20004858  6.09970495
   2.41717600  0.19721700  1.74541800
  -1.41604900  6.83655700  1.74541800
  10.08362700  0.19721700  1.74541800
   6.25040100  6.83655700  1.74541800
   2.81407000  4.47261500  1.74541800
  -1.01915500 11.11195600  1.74541800
  10.48052000  4.47261500  1.74541800
   6.64729600 11.11195600  1.74541800
  -0.01236600  4.44969300  1.74541900
  -3.84559100 11.08903300  1.74541900
   7.65408400  4.44969300  1.74541900
   3.82085900 11.08903300  1.74541900
   6.31676100  1.99147600  1.74541900
   2.48353600  8.63081600  1.74541900
  13.98321200  1.99147600  1.74541900
  10.14998600  8.63081600  1.74541900
   3.84056538  2.22596289  3.08894844
   0.00612610  8.86545892  3.08888544
  11.50693483  2.22643259  3.09099621
   7.67306737  8.86517164  3.08919132
  -2.43493398  4.70039865  3.21084262
  -6.26866096 11.33974256  3.21070137
   5.23229306  4.69985460  3.21071793
   1.39750393 11.34004351  3.21072568
   1.44666793  6.42414326  3.20737805
  -2.38762812 13.06232691  3.20734117
   9.11262379  6.42283102  3.20877827
   5.28000601 13.06306517  3.20798029
   0.99956093  2.20700817  3.20058452
  -2.83500896  8.84567033  3.20120826
   8.66595991  2.20799572  3.20132353
   4.83168986  8.84605711  3.20092573
   2.41457235  0.24789326  4.63071228
  -1.41926079  6.88675959  4.63055044
  10.08235180  0.24707917  4.63022510
   6.24812401  6.88670777  4.63043976
   2.83239988  4.45234805  4.63602267
  -1.00264966 11.09009956  4.63605824
  10.49934983  4.45248149  4.63840669
   6.66477771 11.09012848  4.63618778
   0.00656886  4.44265099  4.75656168
  -3.83038291 11.08065664  4.75749109
   7.67149746  4.44169199  4.76460089
   3.83717549 11.08237716  4.75746728
   6.26953003  1.98496557  4.63213255
   2.43370059  8.62868527  4.63296831
  13.93723926  1.98750210  4.63351864
  10.10139194  8.62606761  4.63386408
   3.84125913  2.23086033  6.23701293
   0.00547382  8.86995155  6.23960144
  11.50975501  2.22842107  6.24106393
   7.67148807  8.86847284  6.23924998
  -2.45437296  4.62220919  6.05014958
  -6.29550272 11.26653510  6.05118600
   5.20544738  4.62620094  6.04996879
   1.37160966 11.26689602  6.05184456
   1.39567401  6.48834894  6.04801086
  -2.43850987 13.12439209  6.04663784
   9.06205286  6.48731399  6.05200179
   5.23113048 13.12559393  6.04908368
   1.08431077  2.21811629  6.04756330
  -2.75273656  8.85466930  6.04820779
   8.75425292  2.21475394  6.04460991
   4.91290913  8.85747817  6.04566871
   2.56077812  0.16166601  7.49921625
  -1.27417618  6.79833330  7.49728268
  10.22687311  0.16015380  7.49947081
   6.38362034  6.80461252  7.49888866
   2.68924897  4.37536131  7.50563966
  -1.14939809 11.01344478  7.50273832
  10.37309154  4.39018490  7.50942848
   6.51780539 11.01115050  7.50349616
   6.27947383  2.14442045  7.48957938
   2.43884538  8.79722736  7.50003059
  13.94454371  2.15415642  7.50029419
  10.10477514  8.79592102  7.50056775
  -2.38402300  4.66711700  0.54988900
  -6.21724800 11.30645800  0.54988900
   5.28242700  4.66711700  0.54988900
   1.44920200 11.30645800  0.54988900
   1.37294000  6.39441900  0.54982000
  -2.46028500 13.03375900  0.54982000
   9.03939100  6.39441900  0.54982000
   5.20616500 13.03375900  0.54982000
   0.99240300  2.29271500  0.54948100
  -2.84082200  8.93205500  0.54948100
   8.65885400  2.29271500  0.54948100
   4.82562900  8.93205500  0.54948100
   2.75554800  0.64799200  0.89911700
  -1.07767700  7.28733300  0.89911700
  10.42199800  0.64799200  0.89911700
   6.58877300  7.28733300  0.89911700
   2.95889400  3.88250200  0.92933300
  -0.87433100 10.52184200  0.92933300
  10.62534400  3.88250200  0.92933300
   6.79212000 10.52184200  0.92933300
   5.73703000  2.10384300  0.91661800
   1.90380500  8.74318300  0.91661800
  13.40348100  2.10384300  0.91661800
   9.57025500  8.74318300  0.91661800
  -1.82507162  4.13762626  6.70642943
  -5.66630168 10.78964022  6.71250237
   5.83157817  4.13840673  6.70511952
   1.99961463 10.78413722  6.71070437
   0.66729654  6.18374263  6.70972855
  -3.16644507 12.82139693  6.70956393
   8.31878323  6.19549145  6.70276689
   4.50202910 12.82139002  6.71005903
   1.18825322  3.00151365  6.70886150
  -2.64912210  9.64016407  6.70680272
   8.85141925  2.99275492  6.70988733
   5.01321819  9.64040340  6.70741908
   2.43714383  5.36037359  7.58237988
  -1.40336279 11.99642810  7.59284054
  10.14029222  5.38335691  7.56003862
   6.26722373 11.99468609  7.59559384
  -1.99467784  6.08288873  7.58395563
  -5.83403275 12.73441604  7.59617157
   5.65314095  6.10063037  7.59902277
   1.83685687 12.72685926  7.59069461
  -0.40807457  1.88671935  7.58305296
  -4.24863244  8.52890662  7.59026126
   7.24507084  1.84251773  7.60194060
   3.41601512  8.52111755  7.58908051
   3.06577738  4.01786709  8.38184319
  -0.80801421 10.62633880  8.37975103
  10.78554937  4.05934442  8.38054013
   6.85746304 10.62084285  8.37977382
   2.73852413  0.65110588  8.37351340
  -1.10913614  7.28492129  8.37550740
  10.39951834  0.64740762  8.37579293
   6.54208208  7.30058846  8.37351882
   5.76582244  2.15369156  8.36708643
   1.93341490  8.68899585  8.37669355
  13.44376883  2.04014609  8.37885515
   9.59879969  8.70273013  8.37825349
   7.64377831  4.38487294  8.30817370
   8.20383563  5.30756015  9.74902278
   8.17702638  3.50156193  9.78454659
   7.68301375  4.40511593  9.40108272
   6.36106468  4.43447161  9.90271174
 


--------------------------------------------------------------------------------------------------------


 k-point  1 :   0.0000 0.0000 0.0000  plane waves:   91445
 k-point  2 :   0.5000 0.0000 0.0000  plane waves:   91388
 k-point  3 :   0.0000 0.5000 0.0000  plane waves:   91388
 k-point  4 :   0.5000 0.5000 0.0000  plane waves:   91388

 maximum and minimum number of plane-waves per node :      1453     1412

 maximum number of plane-waves:     91445
 maximum index in each direction: 
   IXMAX=   26   IYMAX=   26   IZMAX=   35
   IXMIN=  -27   IYMIN=  -27   IZMIN=  -35

 WARNING: aliasing errors must be expected set NGX to 108 to avoid them
 WARNING: aliasing errors must be expected set NGY to 108 to avoid them
 WARNING: aliasing errors must be expected set NGZ to 142 to avoid them
 aliasing errors are usually negligible using standard VASP settings
 and one can safely disregard these warnings

 parallel 3D FFT for wavefunctions:
    minimum data exchange during FFTs selected (reduces bandwidth)
 parallel 3D FFT for charge:
    minimum data exchange during FFTs selected (reduces bandwidth)


 total amount of memory used by VASP on root node    97882. kBytes
========================================================================

   base      :      30000. kBytes
   nonl-proj :       6154. kBytes
   fftplans  :       7340. kBytes
   grid      :      15482. kBytes
   one-center:          9. kBytes
   wavefun   :      38897. kBytes
 
     INWAV:  cpu time    0.00: real time    0.00
 Broyden mixing: mesh for mixing (old mesh)
   NGX = 53   NGY = 53   NGZ = 71
  (NGX  =160   NGY  =160   NGZ  =216)
  gives a total of 199439 points

 initial charge density was supplied:
 charge density of overlapping atoms calculated
 number of electron     646.0000000 magnetization 
 keeping initial charge density in first step


--------------------------------------------------------------------------------------------------------


 Maximum index for augmentation-charges          333 (set IRDMAX)


--------------------------------------------------------------------------------------------------------


 First call to EWALD:  gamma=   0.110
 Maximum number of real-space cells 3x 3x 2
 Maximum number of reciprocal cells 3x 3x 3

 FEWALD executed in parallel
    FEWALD:  cpu time    0.03: real time    0.03
[...]
     10.132191  1.181668  6.096796            0           0           0  
      6.290690  7.824826  6.096299            0           0           0  
      5.433182  1.555465  6.097765            0           0           0  
      1.600955  8.199147  6.099632            0           0           0  
     13.105621  1.557226  6.099807            0           0           0  
      9.267049  8.200049  6.099705            0           0           0  
      2.417176  0.197217  1.745418            0           0           0  
     -1.416049  6.836557  1.745418            0           0           0  
     10.083627  0.197217  1.745418            0           0           0  
      6.250401  6.836557  1.745418            0           0           0  
      2.814070  4.472615  1.745418            0           0           0  
     -1.019155 11.111956  1.745418            0           0           0  
     10.480520  4.472615  1.745418            0           0           0  
      6.647296 11.111956  1.745418            0           0           0  
     -0.012366  4.449693  1.745419            0           0           0  
     -3.845591 11.089033  1.745419            0           0           0  
      7.654084  4.449693  1.745419            0           0           0  
      3.820859 11.089033  1.745419            0           0           0  
      6.316761  1.991476  1.745419            0           0           0  
      2.483536  8.630816  1.745419            0           0           0  
     13.983212  1.991476  1.745419            0           0           0  
     10.149986  8.630816  1.745419            0           0           0  
      3.840565  2.225963  3.088948            0           0           0  
      0.006126  8.865459  3.088885            0           0           0  
     11.506935  2.226433  3.090996            0           0           0  
      7.673067  8.865172  3.089191            0           0           0  
     -2.434934  4.700399  3.210843            0           0           0  
     -6.268661 11.339743  3.210701            0           0           0  
      5.232293  4.699855  3.210718            0           0           0  
      1.397504 11.340044  3.210726            0           0           0  
      1.446668  6.424143  3.207378            0           0           0  
     -2.387628 13.062327  3.207341            0           0           0  
      9.112624  6.422831  3.208778            0           0           0  
      5.280006 13.063065  3.207980            0           0           0  
      0.999561  2.207008  3.200585            0           0           0  
     -2.835009  8.845670  3.201208            0           0           0  
      8.665960  2.207996  3.201324            0           0           0  
      4.831690  8.846057  3.200926            0           0           0  
      2.414572  0.247893  4.630712            0           0           0  
     -1.419261  6.886760  4.630550            0           0           0  
     10.082352  0.247079  4.630225            0           0           0  
      6.248124  6.886708  4.630440            0           0           0  
      2.832400  4.452348  4.636023            0           0           0  
     -1.002650 11.090100  4.636058            0           0           0  
     10.499350  4.452481  4.638407     0.000212    0.000249    0.000566  
      6.664778 11.090128  4.636188            0           0           0  
      0.006569  4.442651  4.756562            0           0           0  
     -3.830383 11.080657  4.757491            0           0           0  
      7.671497  4.441692  4.764601            0           0           0  
      3.837175 11.082377  4.757467            0           0           0  
      6.269530  1.984966  4.632133            0           0           0  
      2.433701  8.628685  4.632968            0           0           0  
     13.937239  1.987502  4.633519            0           0           0  
     10.101392  8.626068  4.633864            0           0           0  
      3.841259  2.230860  6.237013            0           0           0  
      0.005474  8.869952  6.239601            0           0           0  
     11.509755  2.228421  6.241064    -0.000180    0.000446    0.001580  
      7.671488  8.868473  6.239250            0           0           0  
     -2.454373  4.622209  6.050150    -0.001193    0.000556    0.001082  
     -6.295503 11.266535  6.051186            0           0           0  
      5.205447  4.626201  6.049969            0           0           0  
      1.371610 11.266896  6.051845            0           0           0  
      1.395674  6.488349  6.048011            0           0           0  
     -2.438510 13.124392  6.046638            0           0           0  
      9.062053  6.487314  6.052002            0           0           0  
      5.231130 13.125594  6.049084            0           0           0  
      1.084311  2.218116  6.047563            0           0           0  
     -2.752737  8.854669  6.048208            0           0           0  
      8.754253  2.214754  6.044610            0           0           0  
      4.912909  8.857478  6.045669            0           0           0  
      2.560778  0.161666  7.499216            0           0           0  
     -1.274176  6.798333  7.497283            0           0           0  
     10.226873  0.160154  7.499471            0           0           0  
      6.383620  6.804613  7.498889            0           0           0  
      2.689249  4.375361  7.505640            0           0           0  
     -1.149398 11.013445  7.502738            0           0           0  
     10.373092  4.390185  7.509428    -0.008763   -0.004393    0.002086  
      6.517805 11.011150  7.503496            0           0           0  
      6.279474  2.144420  7.489579            0           0           0  
      2.438845  8.797227  7.500031            0           0           0  
     13.944544  2.154156  7.500294            0           0           0  
     10.104775  8.795921  7.500568            0           0           0  
     -2.384023  4.667117  0.549889            0           0           0  
     -6.217248 11.306458  0.549889            0           0           0  
      5.282427  4.667117  0.549889            0           0           0  
      1.449202 11.306458  0.549889            0           0           0  
      1.372940  6.394419  0.549820            0           0           0  
     -2.460285 13.033759  0.549820            0           0           0  
      9.039391  6.394419  0.549820            0           0           0  
      5.206165 13.033759  0.549820            0           0           0  
      0.992403  2.292715  0.549481            0           0           0  
     -2.840822  8.932055  0.549481            0           0           0  
      8.658854  2.292715  0.549481            0           0           0  
      4.825629  8.932055  0.549481            0           0           0  
      2.755548  0.647992  0.899117            0           0           0  
     -1.077677  7.287333  0.899117            0           0           0  
     10.421998  0.647992  0.899117            0           0           0  
      6.588773  7.287333  0.899117            0           0           0  
      2.958894  3.882502  0.929333            0           0           0  
     -0.874331 10.521842  0.929333            0           0           0  
     10.625344  3.882502  0.929333            0           0           0  
      6.792120 10.521842  0.929333            0           0           0  
      5.737030  2.103843  0.916618            0           0           0  
      1.903805  8.743183  0.916618            0           0           0  
     13.403481  2.103843  0.916618            0           0           0  
      9.570255  8.743183  0.916618            0           0           0  
     -1.825072  4.137626  6.706429            0           0           0  
     -5.666302 10.789640  6.712502            0           0           0  
      5.831578  4.138407  6.705120            0           0           0  
      1.999615 10.784137  6.710704            0           0           0  
      0.667297  6.183743  6.709729            0           0           0  
     -3.166445 12.821397  6.709564            0           0           0  
      8.318783  6.195491  6.702767            0           0           0  
      4.502029 12.821390  6.710059            0           0           0  
      1.188253  3.001514  6.708861            0           0           0  
     -2.649122  9.640164  6.706803            0           0           0  
      8.851419  2.992755  6.709887            0           0           0  
      5.013218  9.640403  6.707419            0           0           0  
      2.437144  5.360374  7.582380            0           0           0  
     -1.403363 11.996428  7.592841            0           0           0  
     10.140292  5.383357  7.560039    -0.002887   -0.001516    0.003422  
      6.267224 11.994686  7.595594            0           0           0  
     -1.994678  6.082889  7.583956            0           0           0  
     -5.834033 12.734416  7.596172            0           0           0  
      5.653141  6.100630  7.599023            0           0           0  
      1.836857 12.726859  7.590695            0           0           0  
     -0.408075  1.886719  7.583053            0           0           0  
     -4.248632  8.528907  7.590261            0           0           0  
      7.245071  1.842518  7.601941            0           0           0  
      3.416015  8.521118  7.589081            0           0           0  
      3.065777  4.017867  8.381843            0           0           0  
     -0.808014 10.626339  8.379751            0           0           0  
     10.785549  4.059344  8.380540    -0.005327   -0.004133    0.000839  
      6.857463 10.620843  8.379774            0           0           0  
      2.738524  0.651106  8.373513            0           0           0  
     -1.109136  7.284921  8.375507            0           0           0  
     10.399518  0.647408  8.375793            0           0           0  
      6.542082  7.300588  8.373519            0           0           0  
      5.765822  2.153692  8.367086            0           0           0  
      1.933415  8.688996  8.376694            0           0           0  
     13.443769  2.040146  8.378855            0           0           0  
      9.598800  8.702730  8.378253            0           0           0  
      7.643778  4.384873  8.308174     0.000092    0.039619   -0.002593  
      8.203836  5.307560  9.749023    -0.121514   -0.095320    0.131731  
      8.177026  3.501562  9.784547    -0.089118   -0.099545   -0.053727  
      7.683014  4.405116  9.401083    -0.274108   -0.243357    0.008381  
      6.361065  4.434472  9.902712    -0.503283   -0.633392   -0.383897  
 
 Finite differences POTIM=  1.500000000000000E-002
     LOOP+:  cpu time  958.52: real time  959.19
    4ORBIT:  cpu time    0.00: real time    0.00
 


 total charge     
 
# of ion     s       p       d       tot
----------------------------------------
  1        0.694   0.985   0.000   1.680
  2        0.694   0.985   0.000   1.680
  3        0.694   0.985   0.000   1.680
  4        0.694   0.985   0.000   1.679
  5        0.691   0.967   0.000   1.659
  6        0.691   0.968   0.000   1.659
  7        0.691   0.967   0.000   1.659
  8        0.691   0.967   0.000   1.659
  9        0.694   0.986   0.000   1.679
 10        0.694   0.985   0.000   1.679
 11        0.694   0.985   0.000   1.679
 12        0.694   0.986   0.000   1.679
 13        0.673   0.963   0.000   1.636
 14        0.673   0.963   0.000   1.637
 15        0.673   0.963   0.000   1.636
 16        0.673   0.963   0.000   1.637
 17        0.672   0.959   0.000   1.631
 18        0.672   0.959   0.000   1.631
 19        0.672   0.958   0.000   1.631
 20        0.672   0.959   0.000   1.631
 21        0.673   0.961   0.000   1.634
 22        0.673   0.961   0.000   1.634
 23        0.673   0.960   0.000   1.633
 24        0.673   0.960   0.000   1.633
 25        0.676   0.973   0.000   1.649
 26        0.676   0.972   0.000   1.648
 27        0.676   0.973   0.000   1.648
 28        0.676   0.973   0.000   1.648
 29        0.676   0.972   0.000   1.648
 30        0.676   0.972   0.000   1.648
 31        0.676   0.971   0.000   1.647
 32        0.676   0.973   0.000   1.649
 33        0.676   0.973   0.000   1.649
 34        0.676   0.973   0.000   1.649
 35        0.676   0.972   0.000   1.647
 36        0.676   0.972   0.000   1.648
 37        0.681   0.989   0.000   1.669
 38        0.680   0.988   0.000   1.668
 39        0.681   0.989   0.000   1.669
 40        0.680   0.988   0.000   1.668
 41        0.680   0.988   0.000   1.668
 42        0.680   0.988   0.000   1.668
 43        0.680   0.989   0.000   1.669
 44        0.680   0.989   0.000   1.670
 45        0.680   0.990   0.000   1.670
 46        0.680   0.988   0.000   1.668
 47        0.680   0.988   0.000   1.668
 48        0.680   0.988   0.000   1.668
 49        1.223   2.736   0.000   3.959
 50        1.223   2.736   0.000   3.959
 51        1.223   2.736   0.000   3.959
 52        1.223   2.736   0.000   3.959
 53        1.222   2.715   0.000   3.937
 54        1.222   2.715   0.000   3.937
 55        1.222   2.715   0.000   3.937
 56        1.222   2.715   0.000   3.937
 57        1.229   2.680   0.000   3.908
 58        1.229   2.680   0.000   3.908
 59        1.229   2.679   0.000   3.908
 60        1.229   2.679   0.000   3.908
 61        1.225   2.735   0.000   3.960
 62        1.225   2.735   0.000   3.959
 63        1.225   2.735   0.000   3.960
 64        1.225   2.735   0.000   3.959
 65        1.227   2.688   0.000   3.915
 66        1.227   2.688   0.000   3.915
 67        1.227   2.688   0.000   3.914
 68        1.227   2.688   0.000   3.915
 69        1.228   2.713   0.000   3.941
 70        1.228   2.713   0.000   3.941
 71        1.228   2.713   0.000   3.941
 72        1.228   2.713   0.000   3.941
 73        1.227   2.714   0.000   3.941
 74        1.227   2.714   0.000   3.941
 75        1.227   2.713   0.000   3.940
 76        1.227   2.713   0.000   3.941
 77        1.227   2.710   0.000   3.936
 78        1.227   2.709   0.000   3.936
 79        1.227   2.709   0.000   3.936
 80        1.227   2.710   0.000   3.936
 81        1.224   2.702   0.000   3.926
 82        1.224   2.703   0.000   3.926
 83        1.224   2.703   0.000   3.927
 84        1.224   2.702   0.000   3.926
 85        1.224   2.704   0.000   3.928
 86        1.224   2.704   0.000   3.928
 87        1.224   2.703   0.000   3.927
 88        1.224   2.704   0.000   3.928
 89        1.227   2.701   0.000   3.929
 90        1.227   2.701   0.000   3.928
 91        1.227   2.699   0.000   3.926
 92        1.227   2.701   0.000   3.928
 93        1.224   2.704   0.000   3.928
 94        1.224   2.704   0.000   3.928
 95        1.224   2.703   0.000   3.927
 96        1.224   2.703   0.000   3.928
 97        1.229   2.714   0.000   3.943
 98        1.229   2.713   0.000   3.942
 99        1.230   2.713   0.000   3.943
100        1.229   2.713   0.000   3.942
101        1.231   2.736   0.000   3.967
102        1.231   2.735   0.000   3.966
103        1.231   2.736   0.000   3.967
104        1.231   2.735   0.000   3.966
105        1.231   2.735   0.000   3.966
106        1.231   2.737   0.000   3.968
107        1.231   2.734   0.000   3.965
108        1.231   2.735   0.000   3.966
109        1.231   2.735   0.000   3.966
110        1.231   2.735   0.000   3.966
111        1.231   2.736   0.000   3.967
112        1.231   2.737   0.000   3.968
113        1.229   2.728   0.000   3.956
114        1.229   2.727   0.000   3.956
115        1.229   2.727   0.000   3.956
116        1.229   2.728   0.000   3.957
117        1.229   2.725   0.000   3.955
118        1.229   2.727   0.000   3.955
119        1.231   2.720   0.000   3.951
120        1.229   2.727   0.000   3.955
121        1.227   2.736   0.000   3.963
122        1.229   2.726   0.000   3.955
123        1.229   2.726   0.000   3.955
124        1.229   2.727   0.000   3.956
125        0.593   0.013   0.000   0.606
126        0.593   0.013   0.000   0.606
127        0.593   0.013   0.000   0.605
128        0.593   0.013   0.000   0.605
129        0.593   0.013   0.000   0.606
130        0.593   0.013   0.000   0.606
131        0.593   0.013   0.000   0.605
132        0.593   0.013   0.000   0.606
133        0.593   0.013   0.000   0.606
134        0.593   0.013   0.000   0.606
135        0.593   0.013   0.000   0.606
136        0.593   0.013   0.000   0.606
137        0.630   0.084   0.000   0.714
138        0.630   0.084   0.000   0.714
139        0.630   0.084   0.000   0.714
140        0.630   0.084   0.000   0.714
141        0.631   0.084   0.000   0.715
142        0.632   0.084   0.000   0.715
143        0.631   0.084   0.000   0.715
144        0.631   0.084   0.000   0.715
145        0.630   0.084   0.000   0.714
146        0.630   0.084   0.000   0.714
147        0.630   0.084   0.000   0.714
148        0.630   0.084   0.000   0.714
149        0.611   0.086   0.000   0.697
150        0.612   0.086   0.000   0.698
151        0.614   0.086   0.000   0.700
152        0.611   0.086   0.000   0.697
153        0.612   0.086   0.000   0.697
154        0.612   0.086   0.000   0.697
155        0.613   0.086   0.000   0.699
156        0.612   0.086   0.000   0.697
157        0.611   0.086   0.000   0.697
158        0.612   0.086   0.000   0.697
159        0.616   0.086   0.000   0.701
160        0.612   0.086   0.000   0.697
161        0.629   0.086   0.000   0.715
162        0.629   0.086   0.000   0.715
163        0.627   0.086   0.000   0.713
164        0.629   0.086   0.000   0.715
165        0.629   0.087   0.000   0.716
166        0.629   0.086   0.000   0.716
167        0.628   0.086   0.000   0.714
168        0.628   0.086   0.000   0.715
169        0.628   0.086   0.000   0.715
170        0.629   0.086   0.000   0.715
171        0.631   0.087   0.000   0.717
172        0.629   0.086   0.000   0.715
173        0.638   0.082   0.000   0.720
174        0.640   0.082   0.000   0.722
175        0.640   0.081   0.000   0.721
176        0.640   0.082   0.000   0.722
177        0.639   0.082   0.000   0.721
178        0.640   0.082   0.000   0.722
179        0.640   0.082   0.000   0.722
180        0.640   0.082   0.000   0.722
181        0.638   0.083   0.000   0.721
182        0.640   0.082   0.000   0.722
183        0.640   0.082   0.000   0.722
184        0.640   0.082   0.000   0.722
185        0.650   0.046   0.000   0.696
186        0.653   0.043   0.000   0.696
187        0.653   0.042   0.000   0.695
188        0.843   1.694   0.000   2.537
189        1.755   4.363   0.000   6.118
------------------------------------------------
tot      167.725 263.608   0.000 431.333
 

 total amount of memory used by VASP on root node    97882. kBytes
========================================================================

   base      :      30000. kBytes
   nonl-proj :       6154. kBytes
   fftplans  :       7340. kBytes
   grid      :      15482. kBytes
   one-center:          9. kBytes
   wavefun   :      38897. kBytes
 
  
  
 General timing and accounting informations for this job:
 ========================================================
  
                  Total CPU time used (sec):    56748.289
                            User time (sec):    56396.689
                          System time (sec):      351.599
                         Elapsed time (sec):    56749.726
  
                   Maximum memory used (kb):      758836.
                   Average memory used (kb):           0.
  
                          Minor page faults:       155176
                          Major page faults:           83
                 Voluntary context switches:       558314
