|===============================================================================
|
|  DFTB+ release 19.1
|
|  Copyright (C) 2006 - 2019  DFTB+ developers group
|
|===============================================================================
|
|  When publishing results obtained with DFTB+, please cite the following
|  reference:
|
|  * B. Aradi, B. Hourahine and T. Frauenheim,
|    DFTB+, a Sparse Matrix-Based Implementation of the DFTB Method,
|    J. Phys. Chem. A, 111 5678 (2007).  [doi: 10.1021/jp070186p]
|
|  You should also cite additional publications crediting the parametrization
|  data you use. Please consult the documentation of the SK-files for the
|  references.
|
|===============================================================================

Reading input file 'dftb_in.hsd'
Parser version: 7

--------------------------------------------------------------------------------
Reading SK-files:
Done.
WARNING!
-> The following 2 node(s) have been ignored by the parser:
(1)
Path: dftbplusinput/Driver/ConjugateGradient/KeepStationary
Line: 7-7 (File: dftb_in.hsd)
(2)
Path: dftbplusinput/Driver/ConjugateGradient/SCC
Line: 11-11 (File: dftb_in.hsd)



Processed input in HSD format written to 'dftb_pin.hsd'

Starting initialization...
--------------------------------------------------------------------------------
OpenMP threads:              8
Chosen random seed:          56219363
Mode:                        Conjugate gradient relaxation
Self consistent charges:     No
Spin polarisation:           No
Nr. of up electrons:           588.000000
Nr. of down electrons:         588.000000
Periodic boundaries:         Yes
Electronic solver:           Relatively robust
Nr. of moved atoms:                     142
Max. nr. of geometry steps:             100
Force tolerance:               0.100000E-03
Electronic temperature:        0.100000E-07 H      0.272114E-06 eV
Included shells:             H:  s
                             N:  s, p
                            Si:  s, p
                             C:  s, p
                             F:  s, p
K-points and weights:           1:  0.000000  0.000000  0.000000     1.000000

K-points in absolute space:     1:  0.000000  0.000000  0.000000

Extra options:
                             Mulliken analysis
Force type                   original

--------------------------------------------------------------------------------

***  Geometry step: 0


Total Energy:                     -513.2656505075 H       -13966.6690 eV
Extrapolated to 0:                -513.2656505075 H       -13966.6690 eV
Total Mermin free energy:         -513.2656505075 H       -13966.6690 eV
Force related energy:             -513.2656505075 H       -13966.6690 eV
Volume:                              0.417918E+05 au^3   0.619291E+04 A^3
Pressure:                            0.664075E-04 au     0.195378E+10 Pa
Maximal force component:             0.382908E-01

--------------------------------------------------------------------------------

***  Geometry step: 1


Total Energy:                     -513.2544527049 H       -13966.3643 eV
Extrapolated to 0:                -513.2544527049 H       -13966.3643 eV
Total Mermin free energy:         -513.2544527049 H       -13966.3643 eV
Force related energy:             -513.2544527049 H       -13966.3643 eV
Volume:                              0.417918E+05 au^3   0.619291E+04 A^3
Pressure:                            0.555547E-04 au     0.163448E+10 Pa
Maximal force component:             0.469739E-01

--------------------------------------------------------------------------------

***  Geometry step: 2


Total Energy:                     -513.2754134868 H       -13966.9346 eV
Extrapolated to 0:                -513.2754134868 H       -13966.9346 eV
Total Mermin free energy:         -513.2754134868 H       -13966.9346 eV
Force related energy:             -513.2754134868 H       -13966.9346 eV
Volume:                              0.417918E+05 au^3   0.619291E+04 A^3
Pressure:                            0.610026E-04 au     0.179476E+10 Pa
Maximal force component:             0.967142E-02

--------------------------------------------------------------------------------

***  Geometry step: 3


Total Energy:                     -513.2773195084 H       -13966.9865 eV
Extrapolated to 0:                -513.2773195084 H       -13966.9865 eV
Total Mermin free energy:         -513.2773195084 H       -13966.9865 eV
Force related energy:             -513.2773195084 H       -13966.9865 eV
Volume:                              0.417918E+05 au^3   0.619291E+04 A^3
Pressure:                            0.609446E-04 au     0.179305E+10 Pa
Maximal force component:             0.154751E-01

--------------------------------------------------------------------------------

***  Geometry step: 4


Total Energy:                     -513.2780768748 H       -13967.0071 eV
Extrapolated to 0:                -513.2780768748 H       -13967.0071 eV
Total Mermin free energy:         -513.2780768748 H       -13967.0071 eV
Force related energy:             -513.2780768748 H       -13967.0071 eV
Volume:                              0.417918E+05 au^3   0.619291E+04 A^3
Pressure:                            0.608950E-04 au     0.179159E+10 Pa
Maximal force component:             0.123906E-01

--------------------------------------------------------------------------------

***  Geometry step: 5


Total Energy:                     -513.2808290664 H       -13967.0820 eV
Extrapolated to 0:                -513.2808290664 H       -13967.0820 eV
Total Mermin free energy:         -513.2808290664 H       -13967.0820 eV
Force related energy:             -513.2808290664 H       -13967.0820 eV
Volume:                              0.417918E+05 au^3   0.619291E+04 A^3
Pressure:                            0.597626E-04 au     0.175828E+10 Pa
Maximal force component:             0.543080E-02

--------------------------------------------------------------------------------

***  Geometry step: 6


Total Energy:                     -513.2770499543 H       -13966.9792 eV
Extrapolated to 0:                -513.2770499543 H       -13966.9792 eV
Total Mermin free energy:         -513.2770499543 H       -13966.9792 eV
Force related energy:             -513.2770499543 H       -13966.9792 eV
Volume:                              0.417918E+05 au^3   0.619291E+04 A^3
Pressure:                            0.581696E-04 au     0.171141E+10 Pa
Maximal force component:             0.322916E-01

--------------------------------------------------------------------------------

***  Geometry step: 7


Total Energy:                     -513.2809296920 H       -13967.0847 eV
Extrapolated to 0:                -513.2809296920 H       -13967.0847 eV
Total Mermin free energy:         -513.2809296920 H       -13967.0847 eV
Force related energy:             -513.2809296920 H       -13967.0847 eV
Volume:                              0.417918E+05 au^3   0.619291E+04 A^3
Pressure:                            0.595313E-04 au     0.175147E+10 Pa
Maximal force component:             0.875492E-02

--------------------------------------------------------------------------------

***  Geometry step: 8


Total Energy:                     -513.2832557853 H       -13967.1480 eV
Extrapolated to 0:                -513.2832557853 H       -13967.1480 eV
Total Mermin free energy:         -513.2832557853 H       -13967.1480 eV
Force related energy:             -513.2832557853 H       -13967.1480 eV
Volume:                              0.417918E+05 au^3   0.619291E+04 A^3
Pressure:                            0.561632E-04 au     0.165238E+10 Pa
Maximal force component:             0.984681E-02

--------------------------------------------------------------------------------

***  Geometry step: 9


Total Energy:                     -513.2808329796 H       -13967.0821 eV
Extrapolated to 0:                -513.2808329796 H       -13967.0821 eV
Total Mermin free energy:         -513.2808329796 H       -13967.0821 eV
Force related energy:             -513.2808329796 H       -13967.0821 eV
Volume:                              0.417918E+05 au^3   0.619291E+04 A^3
Pressure:                            0.511430E-04 au     0.150468E+10 Pa
Maximal force component:             0.165039E-01

--------------------------------------------------------------------------------

***  Geometry step: 10


Total Energy:                     -513.2833750070 H       -13967.1513 eV
Extrapolated to 0:                -513.2833750070 H       -13967.1513 eV
Total Mermin free energy:         -513.2833750070 H       -13967.1513 eV
Force related energy:             -513.2833750070 H       -13967.1513 eV
Volume:                              0.417918E+05 au^3   0.619291E+04 A^3
Pressure:                            0.552317E-04 au     0.162497E+10 Pa
Maximal force component:             0.101707E-01

--------------------------------------------------------------------------------

***  Geometry step: 11


Total Energy:                     -513.2860723490 H       -13967.2247 eV
Extrapolated to 0:                -513.2860723490 H       -13967.2247 eV
Total Mermin free energy:         -513.2860723490 H       -13967.2247 eV
Force related energy:             -513.2860723490 H       -13967.2247 eV
Volume:                              0.417918E+05 au^3   0.619291E+04 A^3
Pressure:                            0.513901E-04 au     0.151195E+10 Pa
Maximal force component:             0.498592E-02

--------------------------------------------------------------------------------

***  Geometry step: 12


Total Energy:                     -513.2834548806 H       -13967.1534 eV
Extrapolated to 0:                -513.2834548806 H       -13967.1534 eV
Total Mermin free energy:         -513.2834548806 H       -13967.1534 eV
Force related energy:             -513.2834548806 H       -13967.1534 eV
Volume:                              0.417918E+05 au^3   0.619291E+04 A^3
Pressure:                            0.451480E-04 au     0.132830E+10 Pa
Maximal force component:             0.174970E-01

--------------------------------------------------------------------------------

***  Geometry step: 13


Total Energy:                     -513.2862392905 H       -13967.2292 eV
Extrapolated to 0:                -513.2862392905 H       -13967.2292 eV
Total Mermin free energy:         -513.2862392905 H       -13967.2292 eV
Force related energy:             -513.2862392905 H       -13967.2292 eV
Volume:                              0.417918E+05 au^3   0.619291E+04 A^3
Pressure:                            0.501678E-04 au     0.147599E+10 Pa
Maximal force component:             0.768479E-02

--------------------------------------------------------------------------------

***  Geometry step: 14


Total Energy:                     -513.2876216398 H       -13967.2668 eV
Extrapolated to 0:                -513.2876216398 H       -13967.2668 eV
Total Mermin free energy:         -513.2876216398 H       -13967.2668 eV
Force related energy:             -513.2876216398 H       -13967.2668 eV
Volume:                              0.417918E+05 au^3   0.619291E+04 A^3
Pressure:                            0.484073E-04 au     0.142419E+10 Pa
Maximal force component:             0.732768E-02

--------------------------------------------------------------------------------

***  Geometry step: 15


Total Energy:                     -513.2879093396 H       -13967.2747 eV
Extrapolated to 0:                -513.2879093396 H       -13967.2747 eV
Total Mermin free energy:         -513.2879093396 H       -13967.2747 eV
Force related energy:             -513.2879093396 H       -13967.2747 eV
Volume:                              0.417918E+05 au^3   0.619291E+04 A^3
Pressure:                            0.488492E-04 au     0.143719E+10 Pa
Maximal force component:             0.561011E-02

--------------------------------------------------------------------------------

***  Geometry step: 16


Total Energy:                     -513.2886595385 H       -13967.2951 eV
Extrapolated to 0:                -513.2886595385 H       -13967.2951 eV
Total Mermin free energy:         -513.2886595385 H       -13967.2951 eV
Force related energy:             -513.2886595385 H       -13967.2951 eV
Volume:                              0.417918E+05 au^3   0.619291E+04 A^3
Pressure:                            0.458435E-04 au     0.134876E+10 Pa
Maximal force component:             0.770925E-02

--------------------------------------------------------------------------------

***  Geometry step: 17


Total Energy:                     -513.2888722083 H       -13967.3009 eV
Extrapolated to 0:                -513.2888722083 H       -13967.3009 eV
Total Mermin free energy:         -513.2888722083 H       -13967.3009 eV
Force related energy:             -513.2888722083 H       -13967.3009 eV
Volume:                              0.417918E+05 au^3   0.619291E+04 A^3
Pressure:                            0.468258E-04 au     0.137766E+10 Pa
Maximal force component:             0.464474E-02

--------------------------------------------------------------------------------

***  Geometry step: 18


Total Energy:                     -513.2901340064 H       -13967.3352 eV
Extrapolated to 0:                -513.2901340064 H       -13967.3352 eV
Total Mermin free energy:         -513.2901340064 H       -13967.3352 eV
Force related energy:             -513.2901340064 H       -13967.3352 eV
Volume:                              0.417918E+05 au^3   0.619291E+04 A^3
Pressure:                            0.446830E-04 au     0.131462E+10 Pa
Maximal force component:             0.308031E-02

--------------------------------------------------------------------------------

***  Geometry step: 19


Total Energy:                     -513.2904240559 H       -13967.3431 eV
Extrapolated to 0:                -513.2904240559 H       -13967.3431 eV
Total Mermin free energy:         -513.2904240559 H       -13967.3431 eV
Force related energy:             -513.2904240559 H       -13967.3431 eV
Volume:                              0.417918E+05 au^3   0.619291E+04 A^3
Pressure:                            0.412982E-04 au     0.121504E+10 Pa
Maximal force component:             0.729189E-02

--------------------------------------------------------------------------------

***  Geometry step: 20


Total Energy:                     -513.2905645183 H       -13967.3469 eV
Extrapolated to 0:                -513.2905645183 H       -13967.3469 eV
Total Mermin free energy:         -513.2905645183 H       -13967.3469 eV
Force related energy:             -513.2905645183 H       -13967.3469 eV
Volume:                              0.417918E+05 au^3   0.619291E+04 A^3
Pressure:                            0.424961E-04 au     0.125028E+10 Pa
Maximal force component:             0.522454E-02

--------------------------------------------------------------------------------

***  Geometry step: 21


Total Energy:                     -513.2912436838 H       -13967.3654 eV
Extrapolated to 0:                -513.2912436838 H       -13967.3654 eV
Total Mermin free energy:         -513.2912436838 H       -13967.3654 eV
Force related energy:             -513.2912436838 H       -13967.3654 eV
Volume:                              0.417918E+05 au^3   0.619291E+04 A^3
Pressure:                            0.397458E-04 au     0.116936E+10 Pa
Maximal force component:             0.824128E-02

--------------------------------------------------------------------------------

***  Geometry step: 22


Total Energy:                     -513.2915347176 H       -13967.3733 eV
Extrapolated to 0:                -513.2915347176 H       -13967.3733 eV
Total Mermin free energy:         -513.2915347176 H       -13967.3733 eV
Force related energy:             -513.2915347176 H       -13967.3733 eV
Volume:                              0.417918E+05 au^3   0.619291E+04 A^3
Pressure:                            0.406850E-04 au     0.119699E+10 Pa
Maximal force component:             0.480022E-02

--------------------------------------------------------------------------------

***  Geometry step: 23


Total Energy:                     -513.2920809816 H       -13967.3882 eV
Extrapolated to 0:                -513.2920809816 H       -13967.3882 eV
Total Mermin free energy:         -513.2920809816 H       -13967.3882 eV
Force related energy:             -513.2920809816 H       -13967.3882 eV
Volume:                              0.417918E+05 au^3   0.619291E+04 A^3
Pressure:                            0.396390E-04 au     0.116622E+10 Pa
Maximal force component:             0.846571E-02

--------------------------------------------------------------------------------

***  Geometry step: 24


Total Energy:                     -513.2921671460 H       -13967.3905 eV
Extrapolated to 0:                -513.2921671460 H       -13967.3905 eV
Total Mermin free energy:         -513.2921671460 H       -13967.3905 eV
Force related energy:             -513.2921671460 H       -13967.3905 eV
Volume:                              0.417918E+05 au^3   0.619291E+04 A^3
Pressure:                            0.399083E-04 au     0.117414E+10 Pa
Maximal force component:             0.500011E-02

--------------------------------------------------------------------------------

***  Geometry step: 25


Total Energy:                     -513.2927165000 H       -13967.4055 eV
Extrapolated to 0:                -513.2927165000 H       -13967.4055 eV
Total Mermin free energy:         -513.2927165000 H       -13967.4055 eV
Force related energy:             -513.2927165000 H       -13967.4055 eV
Volume:                              0.417918E+05 au^3   0.619291E+04 A^3
Pressure:                            0.393472E-04 au     0.115763E+10 Pa
Maximal force component:             0.409959E-02

--------------------------------------------------------------------------------

***  Geometry step: 26


Total Energy:                     -513.2927179339 H       -13967.4055 eV
Extrapolated to 0:                -513.2927179339 H       -13967.4055 eV
Total Mermin free energy:         -513.2927179339 H       -13967.4055 eV
Force related energy:             -513.2927179339 H       -13967.4055 eV
Volume:                              0.417918E+05 au^3   0.619291E+04 A^3
Pressure:                            0.393720E-04 au     0.115836E+10 Pa
Maximal force component:             0.385609E-02

--------------------------------------------------------------------------------

***  Geometry step: 27


Total Energy:                     -513.2932005171 H       -13967.4186 eV
Extrapolated to 0:                -513.2932005171 H       -13967.4186 eV
Total Mermin free energy:         -513.2932005171 H       -13967.4186 eV
Force related energy:             -513.2932005171 H       -13967.4186 eV
Volume:                              0.417918E+05 au^3   0.619291E+04 A^3
Pressure:                            0.381727E-04 au     0.112308E+10 Pa
Maximal force component:             0.302375E-02

--------------------------------------------------------------------------------

***  Geometry step: 28


Total Energy:                     -513.2920178275 H       -13967.3865 eV
Extrapolated to 0:                -513.2920178275 H       -13967.3865 eV
Total Mermin free energy:         -513.2920178275 H       -13967.3865 eV
Force related energy:             -513.2920178275 H       -13967.3865 eV
Volume:                              0.417918E+05 au^3   0.619291E+04 A^3
Pressure:                            0.363769E-04 au     0.107025E+10 Pa
Maximal force component:             0.123705E-01

--------------------------------------------------------------------------------

***  Geometry step: 29


Total Energy:                     -513.2932006690 H       -13967.4186 eV
Extrapolated to 0:                -513.2932006690 H       -13967.4186 eV
Total Mermin free energy:         -513.2932006690 H       -13967.4186 eV
Force related energy:             -513.2932006690 H       -13967.4186 eV
Volume:                              0.417918E+05 au^3   0.619291E+04 A^3
Pressure:                            0.381516E-04 au     0.112246E+10 Pa
Maximal force component:             0.308458E-02

--------------------------------------------------------------------------------

***  Geometry step: 30


Total Energy:                     -513.2933367179 H       -13967.4223 eV
Extrapolated to 0:                -513.2933367179 H       -13967.4223 eV
Total Mermin free energy:         -513.2933367179 H       -13967.4223 eV
Force related energy:             -513.2933367179 H       -13967.4223 eV
Volume:                              0.417918E+05 au^3   0.619291E+04 A^3
Pressure:                            0.372116E-04 au     0.109480E+10 Pa
Maximal force component:             0.517679E-02

--------------------------------------------------------------------------------

***  Geometry step: 31


Total Energy:                     -513.2934551266 H       -13967.4256 eV
Extrapolated to 0:                -513.2934551266 H       -13967.4256 eV
Total Mermin free energy:         -513.2934551266 H       -13967.4256 eV
Force related energy:             -513.2934551266 H       -13967.4256 eV
Volume:                              0.417918E+05 au^3   0.619291E+04 A^3
Pressure:                            0.375898E-04 au     0.110593E+10 Pa
Maximal force component:             0.257472E-02

--------------------------------------------------------------------------------

***  Geometry step: 32


Total Energy:                     -513.2937147704 H       -13967.4326 eV
Extrapolated to 0:                -513.2937147704 H       -13967.4326 eV
Total Mermin free energy:         -513.2937147704 H       -13967.4326 eV
Force related energy:             -513.2937147704 H       -13967.4326 eV
Volume:                              0.417918E+05 au^3   0.619291E+04 A^3
Pressure:                            0.374993E-04 au     0.110327E+10 Pa
Maximal force component:             0.123295E-02

--------------------------------------------------------------------------------

***  Geometry step: 33


Total Energy:                     -513.2933872907 H       -13967.4237 eV
Extrapolated to 0:                -513.2933872907 H       -13967.4237 eV
Total Mermin free energy:         -513.2933872907 H       -13967.4237 eV
Force related energy:             -513.2933872907 H       -13967.4237 eV
Volume:                              0.417918E+05 au^3   0.619291E+04 A^3
Pressure:                            0.374016E-04 au     0.110039E+10 Pa
Maximal force component:             0.480972E-02

--------------------------------------------------------------------------------

***  Geometry step: 34


Total Energy:                     -513.2937245508 H       -13967.4329 eV
Extrapolated to 0:                -513.2937245508 H       -13967.4329 eV
Total Mermin free energy:         -513.2937245508 H       -13967.4329 eV
Force related energy:             -513.2937245508 H       -13967.4329 eV
Volume:                              0.417918E+05 au^3   0.619291E+04 A^3
Pressure:                            0.374813E-04 au     0.110274E+10 Pa
Maximal force component:             0.169254E-02

--------------------------------------------------------------------------------

***  Geometry step: 35


Total Energy:                     -513.2939003627 H       -13967.4377 eV
Extrapolated to 0:                -513.2939003627 H       -13967.4377 eV
Total Mermin free energy:         -513.2939003627 H       -13967.4377 eV
Force related energy:             -513.2939003627 H       -13967.4377 eV
Volume:                              0.417918E+05 au^3   0.619291E+04 A^3
Pressure:                            0.371144E-04 au     0.109194E+10 Pa
Maximal force component:             0.316812E-02

--------------------------------------------------------------------------------

***  Geometry step: 36


Total Energy:                     -513.2939086316 H       -13967.4379 eV
Extrapolated to 0:                -513.2939086316 H       -13967.4379 eV
Total Mermin free energy:         -513.2939086316 H       -13967.4379 eV
Force related energy:             -513.2939086316 H       -13967.4379 eV
Volume:                              0.417918E+05 au^3   0.619291E+04 A^3
Pressure:                            0.371805E-04 au     0.109389E+10 Pa
Maximal force component:             0.250041E-02

--------------------------------------------------------------------------------

***  Geometry step: 37


Total Energy:                     -513.2940866781 H       -13967.4428 eV
Extrapolated to 0:                -513.2940866781 H       -13967.4428 eV
Total Mermin free energy:         -513.2940866781 H       -13967.4428 eV
Force related energy:             -513.2940866781 H       -13967.4428 eV
Volume:                              0.417918E+05 au^3   0.619291E+04 A^3
Pressure:                            0.369094E-04 au     0.108591E+10 Pa
Maximal force component:             0.195153E-02

--------------------------------------------------------------------------------

***  Geometry step: 38


Total Energy:                     -513.2936907787 H       -13967.4320 eV
Extrapolated to 0:                -513.2936907787 H       -13967.4320 eV
Total Mermin free energy:         -513.2936907787 H       -13967.4320 eV
Force related energy:             -513.2936907787 H       -13967.4320 eV
Volume:                              0.417918E+05 au^3   0.619291E+04 A^3
Pressure:                            0.364884E-04 au     0.107353E+10 Pa
Maximal force component:             0.699017E-02

--------------------------------------------------------------------------------

***  Geometry step: 39


Total Energy:                     -513.2940871018 H       -13967.4428 eV
Extrapolated to 0:                -513.2940871018 H       -13967.4428 eV
Total Mermin free energy:         -513.2940871018 H       -13967.4428 eV
Force related energy:             -513.2940871018 H       -13967.4428 eV
Volume:                              0.417918E+05 au^3   0.619291E+04 A^3
Pressure:                            0.368958E-04 au     0.108551E+10 Pa
Maximal force component:             0.201737E-02

--------------------------------------------------------------------------------

***  Geometry step: 40


Total Energy:                     -513.2942900485 H       -13967.4483 eV
Extrapolated to 0:                -513.2942900485 H       -13967.4483 eV
Total Mermin free energy:         -513.2942900485 H       -13967.4483 eV
Force related energy:             -513.2942900485 H       -13967.4483 eV
Volume:                              0.417918E+05 au^3   0.619291E+04 A^3
Pressure:                            0.368349E-04 au     0.108372E+10 Pa
Maximal force component:             0.182352E-02

--------------------------------------------------------------------------------

***  Geometry step: 41


Total Energy:                     -513.2940902800 H       -13967.4429 eV
Extrapolated to 0:                -513.2940902800 H       -13967.4429 eV
Total Mermin free energy:         -513.2940902800 H       -13967.4429 eV
Force related energy:             -513.2940902800 H       -13967.4429 eV
Volume:                              0.417918E+05 au^3   0.619291E+04 A^3
Pressure:                            0.367197E-04 au     0.108033E+10 Pa
Maximal force component:             0.580858E-02

--------------------------------------------------------------------------------

***  Geometry step: 42


Total Energy:                     -513.2943019387 H       -13967.4486 eV
Extrapolated to 0:                -513.2943019387 H       -13967.4486 eV
Total Mermin free energy:         -513.2943019387 H       -13967.4486 eV
Force related energy:             -513.2943019387 H       -13967.4486 eV
Volume:                              0.417918E+05 au^3   0.619291E+04 A^3
Pressure:                            0.368149E-04 au     0.108313E+10 Pa
Maximal force component:             0.263175E-02

--------------------------------------------------------------------------------

***  Geometry step: 43


Total Energy:                     -513.2945499888 H       -13967.4554 eV
Extrapolated to 0:                -513.2945499888 H       -13967.4554 eV
Total Mermin free energy:         -513.2945499888 H       -13967.4554 eV
Force related energy:             -513.2945499888 H       -13967.4554 eV
Volume:                              0.417918E+05 au^3   0.619291E+04 A^3
Pressure:                            0.369788E-04 au     0.108795E+10 Pa
Maximal force component:             0.225959E-02

--------------------------------------------------------------------------------

***  Geometry step: 44


Total Energy:                     -513.2942831195 H       -13967.4481 eV
Extrapolated to 0:                -513.2942831195 H       -13967.4481 eV
Total Mermin free energy:         -513.2942831195 H       -13967.4481 eV
Force related energy:             -513.2942831195 H       -13967.4481 eV
Volume:                              0.417918E+05 au^3   0.619291E+04 A^3
Pressure:                            0.372283E-04 au     0.109529E+10 Pa
Maximal force component:             0.817923E-02

--------------------------------------------------------------------------------

***  Geometry step: 45


Total Energy:                     -513.2945625795 H       -13967.4557 eV
Extrapolated to 0:                -513.2945625795 H       -13967.4557 eV
Total Mermin free energy:         -513.2945625795 H       -13967.4557 eV
Force related energy:             -513.2945625795 H       -13967.4557 eV
Volume:                              0.417918E+05 au^3   0.619291E+04 A^3
Pressure:                            0.370177E-04 au     0.108910E+10 Pa
Maximal force component:             0.330909E-02

--------------------------------------------------------------------------------

***  Geometry step: 46


Total Energy:                     -513.2948133555 H       -13967.4625 eV
Extrapolated to 0:                -513.2948133555 H       -13967.4625 eV
Total Mermin free energy:         -513.2948133555 H       -13967.4625 eV
Force related energy:             -513.2948133555 H       -13967.4625 eV
Volume:                              0.417918E+05 au^3   0.619291E+04 A^3
Pressure:                            0.371708E-04 au     0.109360E+10 Pa
Maximal force component:             0.206689E-02

--------------------------------------------------------------------------------

***  Geometry step: 47


Total Energy:                     -513.2941536324 H       -13967.4446 eV
Extrapolated to 0:                -513.2941536324 H       -13967.4446 eV
Total Mermin free energy:         -513.2941536324 H       -13967.4446 eV
Force related energy:             -513.2941536324 H       -13967.4446 eV
Volume:                              0.417918E+05 au^3   0.619291E+04 A^3
Pressure:                            0.373459E-04 au     0.109875E+10 Pa
Maximal force component:             0.103805E-01

--------------------------------------------------------------------------------

***  Geometry step: 48


Total Energy:                     -513.2948133556 H       -13967.4625 eV
Extrapolated to 0:                -513.2948133556 H       -13967.4625 eV
Total Mermin free energy:         -513.2948133556 H       -13967.4625 eV
Force related energy:             -513.2948133556 H       -13967.4625 eV
Volume:                              0.417918E+05 au^3   0.619291E+04 A^3
Pressure:                            0.371709E-04 au     0.109361E+10 Pa
Maximal force component:             0.206921E-02

--------------------------------------------------------------------------------

***  Geometry step: 49


Total Energy:                     -513.2950772628 H       -13967.4697 eV
Extrapolated to 0:                -513.2950772628 H       -13967.4697 eV
Total Mermin free energy:         -513.2950772628 H       -13967.4697 eV
Force related energy:             -513.2950772628 H       -13967.4697 eV
Volume:                              0.417918E+05 au^3   0.619291E+04 A^3
Pressure:                            0.371744E-04 au     0.109371E+10 Pa
Maximal force component:             0.180345E-02

--------------------------------------------------------------------------------

***  Geometry step: 50


Total Energy:                     -513.2946112645 H       -13967.4570 eV
Extrapolated to 0:                -513.2946112645 H       -13967.4570 eV
Total Mermin free energy:         -513.2946112645 H       -13967.4570 eV
Force related energy:             -513.2946112645 H       -13967.4570 eV
Volume:                              0.417918E+05 au^3   0.619291E+04 A^3
Pressure:                            0.371218E-04 au     0.109216E+10 Pa
Maximal force component:             0.528820E-02

--------------------------------------------------------------------------------

***  Geometry step: 51


Total Energy:                     -513.2950803531 H       -13967.4698 eV
Extrapolated to 0:                -513.2950803531 H       -13967.4698 eV
Total Mermin free energy:         -513.2950803531 H       -13967.4698 eV
Force related energy:             -513.2950803531 H       -13967.4698 eV
Volume:                              0.417918E+05 au^3   0.619291E+04 A^3
Pressure:                            0.371730E-04 au     0.109367E+10 Pa
Maximal force component:             0.204649E-02

--------------------------------------------------------------------------------

***  Geometry step: 52


Total Energy:                     -513.2951945891 H       -13967.4729 eV
Extrapolated to 0:                -513.2951945891 H       -13967.4729 eV
Total Mermin free energy:         -513.2951945891 H       -13967.4729 eV
Force related energy:             -513.2951945891 H       -13967.4729 eV
Volume:                              0.417918E+05 au^3   0.619291E+04 A^3
Pressure:                            0.373061E-04 au     0.109758E+10 Pa
Maximal force component:             0.445541E-02

--------------------------------------------------------------------------------

***  Geometry step: 53


Total Energy:                     -513.2952441887 H       -13967.4743 eV
Extrapolated to 0:                -513.2952441887 H       -13967.4743 eV
Total Mermin free energy:         -513.2952441887 H       -13967.4743 eV
Force related energy:             -513.2952441887 H       -13967.4743 eV
Volume:                              0.417918E+05 au^3   0.619291E+04 A^3
Pressure:                            0.372608E-04 au     0.109625E+10 Pa
Maximal force component:             0.247202E-02

--------------------------------------------------------------------------------

***  Geometry step: 54


Total Energy:                     -513.2953870439 H       -13967.4781 eV
Extrapolated to 0:                -513.2953870439 H       -13967.4781 eV
Total Mermin free energy:         -513.2953870439 H       -13967.4781 eV
Force related energy:             -513.2953870439 H       -13967.4781 eV
Volume:                              0.417918E+05 au^3   0.619291E+04 A^3
Pressure:                            0.373592E-04 au     0.109915E+10 Pa
Maximal force component:             0.190440E-02

--------------------------------------------------------------------------------

***  Geometry step: 55


Total Energy:                     -513.2953881302 H       -13967.4782 eV
Extrapolated to 0:                -513.2953881302 H       -13967.4782 eV
Total Mermin free energy:         -513.2953881302 H       -13967.4782 eV
Force related energy:             -513.2953881302 H       -13967.4782 eV
Volume:                              0.417918E+05 au^3   0.619291E+04 A^3
Pressure:                            0.373501E-04 au     0.109888E+10 Pa
Maximal force component:             0.178090E-02

--------------------------------------------------------------------------------

***  Geometry step: 56


Total Energy:                     -513.2955343864 H       -13967.4821 eV
Extrapolated to 0:                -513.2955343864 H       -13967.4821 eV
Total Mermin free energy:         -513.2955343864 H       -13967.4821 eV
Force related energy:             -513.2955343864 H       -13967.4821 eV
Volume:                              0.417918E+05 au^3   0.619291E+04 A^3
Pressure:                            0.374469E-04 au     0.110172E+10 Pa
Maximal force component:             0.148351E-02

--------------------------------------------------------------------------------

***  Geometry step: 57


Total Energy:                     -513.2952454619 H       -13967.4743 eV
Extrapolated to 0:                -513.2952454619 H       -13967.4743 eV
Total Mermin free energy:         -513.2952454619 H       -13967.4743 eV
Force related energy:             -513.2952454619 H       -13967.4743 eV
Volume:                              0.417918E+05 au^3   0.619291E+04 A^3
Pressure:                            0.375818E-04 au     0.110570E+10 Pa
Maximal force component:             0.390919E-02

--------------------------------------------------------------------------------

***  Geometry step: 58


Total Energy:                     -513.2955352893 H       -13967.4822 eV
Extrapolated to 0:                -513.2955352893 H       -13967.4822 eV
Total Mermin free energy:         -513.2955352893 H       -13967.4822 eV
Force related energy:             -513.2955352893 H       -13967.4822 eV
Volume:                              0.417918E+05 au^3   0.619291E+04 A^3
Pressure:                            0.374575E-04 au     0.110204E+10 Pa
Maximal force component:             0.159577E-02

--------------------------------------------------------------------------------

***  Geometry step: 59


Total Energy:                     -513.2956229982 H       -13967.4846 eV
Extrapolated to 0:                -513.2956229982 H       -13967.4846 eV
Total Mermin free energy:         -513.2956229982 H       -13967.4846 eV
Force related energy:             -513.2956229982 H       -13967.4846 eV
Volume:                              0.417918E+05 au^3   0.619291E+04 A^3
Pressure:                            0.375504E-04 au     0.110477E+10 Pa
Maximal force component:             0.356124E-02

--------------------------------------------------------------------------------

***  Geometry step: 60


Total Energy:                     -513.2956362982 H       -13967.4849 eV
Extrapolated to 0:                -513.2956362982 H       -13967.4849 eV
Total Mermin free energy:         -513.2956362982 H       -13967.4849 eV
Force related energy:             -513.2956362982 H       -13967.4849 eV
Volume:                              0.417918E+05 au^3   0.619291E+04 A^3
Pressure:                            0.375197E-04 au     0.110387E+10 Pa
Maximal force component:             0.232527E-02

--------------------------------------------------------------------------------

***  Geometry step: 61


Total Energy:                     -513.2957504616 H       -13967.4880 eV
Extrapolated to 0:                -513.2957504616 H       -13967.4880 eV
Total Mermin free energy:         -513.2957504616 H       -13967.4880 eV
Force related energy:             -513.2957504616 H       -13967.4880 eV
Volume:                              0.417918E+05 au^3   0.619291E+04 A^3
Pressure:                            0.375790E-04 au     0.110561E+10 Pa
Maximal force component:             0.141249E-02

--------------------------------------------------------------------------------

***  Geometry step: 62


Total Energy:                     -513.2956076686 H       -13967.4841 eV
Extrapolated to 0:                -513.2956076686 H       -13967.4841 eV
Total Mermin free energy:         -513.2956076686 H       -13967.4841 eV
Force related energy:             -513.2956076686 H       -13967.4841 eV
Volume:                              0.417918E+05 au^3   0.619291E+04 A^3
Pressure:                            0.376711E-04 au     0.110832E+10 Pa
Maximal force component:             0.328536E-02

--------------------------------------------------------------------------------

***  Geometry step: 63


Total Energy:                     -513.2957546886 H       -13967.4881 eV
Extrapolated to 0:                -513.2957546886 H       -13967.4881 eV
Total Mermin free energy:         -513.2957546886 H       -13967.4881 eV
Force related energy:             -513.2957546886 H       -13967.4881 eV
Volume:                              0.417918E+05 au^3   0.619291E+04 A^3
Pressure:                            0.375928E-04 au     0.110602E+10 Pa
Maximal force component:             0.169328E-02

--------------------------------------------------------------------------------

***  Geometry step: 64


Total Energy:                     -513.2958372710 H       -13967.4904 eV
Extrapolated to 0:                -513.2958372710 H       -13967.4904 eV
Total Mermin free energy:         -513.2958372710 H       -13967.4904 eV
Force related energy:             -513.2958372710 H       -13967.4904 eV
Volume:                              0.417918E+05 au^3   0.619291E+04 A^3
Pressure:                            0.377966E-04 au     0.111201E+10 Pa
Maximal force component:             0.142669E-02

--------------------------------------------------------------------------------

***  Geometry step: 65


Total Energy:                     -513.2958424479 H       -13967.4905 eV
Extrapolated to 0:                -513.2958424479 H       -13967.4905 eV
Total Mermin free energy:         -513.2958424479 H       -13967.4905 eV
Force related energy:             -513.2958424479 H       -13967.4905 eV
Volume:                              0.417918E+05 au^3   0.619291E+04 A^3
Pressure:                            0.377585E-04 au     0.111089E+10 Pa
Maximal force component:             0.100033E-02

--------------------------------------------------------------------------------

***  Geometry step: 66


Total Energy:                     -513.2958839326 H       -13967.4917 eV
Extrapolated to 0:                -513.2958839326 H       -13967.4917 eV
Total Mermin free energy:         -513.2958839326 H       -13967.4917 eV
Force related energy:             -513.2958839326 H       -13967.4917 eV
Volume:                              0.417918E+05 au^3   0.619291E+04 A^3
Pressure:                            0.379716E-04 au     0.111716E+10 Pa
Maximal force component:             0.253218E-02

--------------------------------------------------------------------------------

***  Geometry step: 67


Total Energy:                     -513.2958971011 H       -13967.4920 eV
Extrapolated to 0:                -513.2958971011 H       -13967.4920 eV
Total Mermin free energy:         -513.2958971011 H       -13967.4920 eV
Force related energy:             -513.2958971011 H       -13967.4920 eV
Volume:                              0.417918E+05 au^3   0.619291E+04 A^3
Pressure:                            0.379053E-04 au     0.111521E+10 Pa
Maximal force component:             0.164143E-02

--------------------------------------------------------------------------------

***  Geometry step: 68


Total Energy:                     -513.2959562013 H       -13967.4936 eV
Extrapolated to 0:                -513.2959562013 H       -13967.4936 eV
Total Mermin free energy:         -513.2959562013 H       -13967.4936 eV
Force related energy:             -513.2959562013 H       -13967.4936 eV
Volume:                              0.417918E+05 au^3   0.619291E+04 A^3
Pressure:                            0.380174E-04 au     0.111851E+10 Pa
Maximal force component:             0.745091E-03

--------------------------------------------------------------------------------

***  Geometry step: 69


Total Energy:                     -513.2958636071 H       -13967.4911 eV
Extrapolated to 0:                -513.2958636071 H       -13967.4911 eV
Total Mermin free energy:         -513.2958636071 H       -13967.4911 eV
Force related energy:             -513.2958636071 H       -13967.4911 eV
Volume:                              0.417918E+05 au^3   0.619291E+04 A^3
Pressure:                            0.382195E-04 au     0.112445E+10 Pa
Maximal force component:             0.296768E-02

--------------------------------------------------------------------------------

***  Geometry step: 70


Total Energy:                     -513.2959573852 H       -13967.4937 eV
Extrapolated to 0:                -513.2959573852 H       -13967.4937 eV
Total Mermin free energy:         -513.2959573852 H       -13967.4937 eV
Force related energy:             -513.2959573852 H       -13967.4937 eV
Volume:                              0.417918E+05 au^3   0.619291E+04 A^3
Pressure:                            0.380411E-04 au     0.111921E+10 Pa
Maximal force component:             0.848014E-03

--------------------------------------------------------------------------------

***  Geometry step: 71


Total Energy:                     -513.2959978811 H       -13967.4948 eV
Extrapolated to 0:                -513.2959978811 H       -13967.4948 eV
Total Mermin free energy:         -513.2959978811 H       -13967.4948 eV
Force related energy:             -513.2959978811 H       -13967.4948 eV
Volume:                              0.417918E+05 au^3   0.619291E+04 A^3
Pressure:                            0.381567E-04 au     0.112261E+10 Pa
Maximal force component:             0.129371E-02

--------------------------------------------------------------------------------

***  Geometry step: 72


Total Energy:                     -513.2960010174 H       -13967.4948 eV
Extrapolated to 0:                -513.2960010174 H       -13967.4948 eV
Total Mermin free energy:         -513.2960010174 H       -13967.4948 eV
Force related energy:             -513.2960010174 H       -13967.4948 eV
Volume:                              0.417918E+05 au^3   0.619291E+04 A^3
Pressure:                            0.381333E-04 au     0.112192E+10 Pa
Maximal force component:             0.100688E-02

--------------------------------------------------------------------------------

***  Geometry step: 73


Total Energy:                     -513.2960470211 H       -13967.4961 eV
Extrapolated to 0:                -513.2960470211 H       -13967.4961 eV
Total Mermin free energy:         -513.2960470211 H       -13967.4961 eV
Force related energy:             -513.2960470211 H       -13967.4961 eV
Volume:                              0.417918E+05 au^3   0.619291E+04 A^3
Pressure:                            0.381902E-04 au     0.112359E+10 Pa
Maximal force component:             0.624586E-03

--------------------------------------------------------------------------------

***  Geometry step: 74


Total Energy:                     -513.2959686581 H       -13967.4940 eV
Extrapolated to 0:                -513.2959686581 H       -13967.4940 eV
Total Mermin free energy:         -513.2959686581 H       -13967.4940 eV
Force related energy:             -513.2959686581 H       -13967.4940 eV
Volume:                              0.417918E+05 au^3   0.619291E+04 A^3
Pressure:                            0.382692E-04 au     0.112592E+10 Pa
Maximal force component:             0.289092E-02

--------------------------------------------------------------------------------

***  Geometry step: 75


Total Energy:                     -513.2960476879 H       -13967.4961 eV
Extrapolated to 0:                -513.2960476879 H       -13967.4961 eV
Total Mermin free energy:         -513.2960476879 H       -13967.4961 eV
Force related energy:             -513.2960476879 H       -13967.4961 eV
Volume:                              0.417918E+05 au^3   0.619291E+04 A^3
Pressure:                            0.381977E-04 au     0.112382E+10 Pa
Maximal force component:             0.695812E-03

--------------------------------------------------------------------------------

***  Geometry step: 76


Total Energy:                     -513.2960755221 H       -13967.4969 eV
Extrapolated to 0:                -513.2960755221 H       -13967.4969 eV
Total Mermin free energy:         -513.2960755221 H       -13967.4969 eV
Force related energy:             -513.2960755221 H       -13967.4969 eV
Volume:                              0.417918E+05 au^3   0.619291E+04 A^3
Pressure:                            0.381420E-04 au     0.112218E+10 Pa
Maximal force component:             0.968436E-03

--------------------------------------------------------------------------------

***  Geometry step: 77


Total Energy:                     -513.2960799862 H       -13967.4970 eV
Extrapolated to 0:                -513.2960799862 H       -13967.4970 eV
Total Mermin free energy:         -513.2960799862 H       -13967.4970 eV
Force related energy:             -513.2960799862 H       -13967.4970 eV
Volume:                              0.417918E+05 au^3   0.619291E+04 A^3
Pressure:                            0.381637E-04 au     0.112281E+10 Pa
Maximal force component:             0.556371E-03

--------------------------------------------------------------------------------

***  Geometry step: 78


Total Energy:                     -513.2961098528 H       -13967.4978 eV
Extrapolated to 0:                -513.2961098528 H       -13967.4978 eV
Total Mermin free energy:         -513.2961098528 H       -13967.4978 eV
Force related energy:             -513.2961098528 H       -13967.4978 eV
Volume:                              0.417918E+05 au^3   0.619291E+04 A^3
Pressure:                            0.382374E-04 au     0.112498E+10 Pa
Maximal force component:             0.647574E-03

--------------------------------------------------------------------------------

***  Geometry step: 79


Total Energy:                     -513.2960430205 H       -13967.4960 eV
Extrapolated to 0:                -513.2960430205 H       -13967.4960 eV
Total Mermin free energy:         -513.2960430205 H       -13967.4960 eV
Force related energy:             -513.2960430205 H       -13967.4960 eV
Volume:                              0.417918E+05 au^3   0.619291E+04 A^3
Pressure:                            0.383596E-04 au     0.112858E+10 Pa
Maximal force component:             0.174178E-02

--------------------------------------------------------------------------------

***  Geometry step: 80


Total Energy:                     -513.2961099141 H       -13967.4978 eV
Extrapolated to 0:                -513.2961099141 H       -13967.4978 eV
Total Mermin free energy:         -513.2961099141 H       -13967.4978 eV
Force related energy:             -513.2961099141 H       -13967.4978 eV
Volume:                              0.417918E+05 au^3   0.619291E+04 A^3
Pressure:                            0.382409E-04 au     0.112509E+10 Pa
Maximal force component:             0.679898E-03

--------------------------------------------------------------------------------

***  Geometry step: 81


Total Energy:                     -513.2961221871 H       -13967.4981 eV
Extrapolated to 0:                -513.2961221871 H       -13967.4981 eV
Total Mermin free energy:         -513.2961221871 H       -13967.4981 eV
Force related energy:             -513.2961221871 H       -13967.4981 eV
Volume:                              0.417918E+05 au^3   0.619291E+04 A^3
Pressure:                            0.382728E-04 au     0.112602E+10 Pa
Maximal force component:             0.116389E-02

--------------------------------------------------------------------------------

***  Geometry step: 82


Total Energy:                     -513.2961275053 H       -13967.4983 eV
Extrapolated to 0:                -513.2961275053 H       -13967.4983 eV
Total Mermin free energy:         -513.2961275053 H       -13967.4983 eV
Force related energy:             -513.2961275053 H       -13967.4983 eV
Volume:                              0.417918E+05 au^3   0.619291E+04 A^3
Pressure:                            0.382605E-04 au     0.112566E+10 Pa
Maximal force component:             0.602374E-03

--------------------------------------------------------------------------------

***  Geometry step: 83


Total Energy:                     -513.2961444448 H       -13967.4987 eV
Extrapolated to 0:                -513.2961444448 H       -13967.4987 eV
Total Mermin free energy:         -513.2961444448 H       -13967.4987 eV
Force related energy:             -513.2961444448 H       -13967.4987 eV
Volume:                              0.417918E+05 au^3   0.619291E+04 A^3
Pressure:                            0.381974E-04 au     0.112381E+10 Pa
Maximal force component:             0.428023E-03

--------------------------------------------------------------------------------

***  Geometry step: 84


Total Energy:                     -513.2961046703 H       -13967.4977 eV
Extrapolated to 0:                -513.2961046703 H       -13967.4977 eV
Total Mermin free energy:         -513.2961046703 H       -13967.4977 eV
Force related energy:             -513.2961046703 H       -13967.4977 eV
Volume:                              0.417918E+05 au^3   0.619291E+04 A^3
Pressure:                            0.381075E-04 au     0.112116E+10 Pa
Maximal force component:             0.156129E-02

--------------------------------------------------------------------------------

***  Geometry step: 85


Total Energy:                     -513.2961444625 H       -13967.4987 eV
Extrapolated to 0:                -513.2961444625 H       -13967.4987 eV
Total Mermin free energy:         -513.2961444625 H       -13967.4987 eV
Force related energy:             -513.2961444625 H       -13967.4987 eV
Volume:                              0.417918E+05 au^3   0.619291E+04 A^3
Pressure:                            0.381949E-04 au     0.112373E+10 Pa
Maximal force component:             0.450617E-03

--------------------------------------------------------------------------------

***  Geometry step: 86


Total Energy:                     -513.2961580163 H       -13967.4991 eV
Extrapolated to 0:                -513.2961580163 H       -13967.4991 eV
Total Mermin free energy:         -513.2961580163 H       -13967.4991 eV
Force related energy:             -513.2961580163 H       -13967.4991 eV
Volume:                              0.417918E+05 au^3   0.619291E+04 A^3
Pressure:                            0.381049E-04 au     0.112109E+10 Pa
Maximal force component:             0.446908E-03

--------------------------------------------------------------------------------

***  Geometry step: 87


Total Energy:                     -513.2961582017 H       -13967.4991 eV
Extrapolated to 0:                -513.2961582017 H       -13967.4991 eV
Total Mermin free energy:         -513.2961582017 H       -13967.4991 eV
Force related energy:             -513.2961582017 H       -13967.4991 eV
Volume:                              0.417918E+05 au^3   0.619291E+04 A^3
Pressure:                            0.381151E-04 au     0.112138E+10 Pa
Maximal force component:             0.397005E-03

--------------------------------------------------------------------------------

***  Geometry step: 88


Total Energy:                     -513.2961702381 H       -13967.4995 eV
Extrapolated to 0:                -513.2961702381 H       -13967.4995 eV
Total Mermin free energy:         -513.2961702381 H       -13967.4995 eV
Force related energy:             -513.2961702381 H       -13967.4995 eV
Volume:                              0.417918E+05 au^3   0.619291E+04 A^3
Pressure:                            0.380794E-04 au     0.112034E+10 Pa
Maximal force component:             0.399017E-03

--------------------------------------------------------------------------------

***  Geometry step: 89


Total Energy:                     -513.2961702685 H       -13967.4995 eV
Extrapolated to 0:                -513.2961702685 H       -13967.4995 eV
Total Mermin free energy:         -513.2961702685 H       -13967.4995 eV
Force related energy:             -513.2961702685 H       -13967.4995 eV
Volume:                              0.417918E+05 au^3   0.619291E+04 A^3
Pressure:                            0.380815E-04 au     0.112040E+10 Pa
Maximal force component:             0.380941E-03

--------------------------------------------------------------------------------

***  Geometry step: 90


Total Energy:                     -513.2961818467 H       -13967.4998 eV
Extrapolated to 0:                -513.2961818467 H       -13967.4998 eV
Total Mermin free energy:         -513.2961818467 H       -13967.4998 eV
Force related energy:             -513.2961818467 H       -13967.4998 eV
Volume:                              0.417918E+05 au^3   0.619291E+04 A^3
Pressure:                            0.380446E-04 au     0.111931E+10 Pa
Maximal force component:             0.345633E-03

--------------------------------------------------------------------------------

***  Geometry step: 91


Total Energy:                     -513.2961549912 H       -13967.4990 eV
Extrapolated to 0:                -513.2961549912 H       -13967.4990 eV
Total Mermin free energy:         -513.2961549912 H       -13967.4990 eV
Force related energy:             -513.2961549912 H       -13967.4990 eV
Volume:                              0.417918E+05 au^3   0.619291E+04 A^3
Pressure:                            0.379906E-04 au     0.111772E+10 Pa
Maximal force component:             0.923446E-03

--------------------------------------------------------------------------------

***  Geometry step: 92


Total Energy:                     -513.2961818658 H       -13967.4998 eV
Extrapolated to 0:                -513.2961818658 H       -13967.4998 eV
Total Mermin free energy:         -513.2961818658 H       -13967.4998 eV
Force related energy:             -513.2961818658 H       -13967.4998 eV
Volume:                              0.417918E+05 au^3   0.619291E+04 A^3
Pressure:                            0.380430E-04 au     0.111926E+10 Pa
Maximal force component:             0.358374E-03

--------------------------------------------------------------------------------

***  Geometry step: 93


Total Energy:                     -513.2961893794 H       -13967.5000 eV
Extrapolated to 0:                -513.2961893794 H       -13967.5000 eV
Total Mermin free energy:         -513.2961893794 H       -13967.5000 eV
Force related energy:             -513.2961893794 H       -13967.5000 eV
Volume:                              0.417918E+05 au^3   0.619291E+04 A^3
Pressure:                            0.379570E-04 au     0.111673E+10 Pa
Maximal force component:             0.389904E-03

--------------------------------------------------------------------------------

***  Geometry step: 94


Total Energy:                     -513.2961899704 H       -13967.5000 eV
Extrapolated to 0:                -513.2961899704 H       -13967.5000 eV
Total Mermin free energy:         -513.2961899704 H       -13967.5000 eV
Force related energy:             -513.2961899704 H       -13967.5000 eV
Volume:                              0.417918E+05 au^3   0.619291E+04 A^3
Pressure:                            0.379755E-04 au     0.111728E+10 Pa
Maximal force component:             0.306057E-03

--------------------------------------------------------------------------------

***  Geometry step: 95


Total Energy:                     -513.2961953282 H       -13967.5001 eV
Extrapolated to 0:                -513.2961953282 H       -13967.5001 eV
Total Mermin free energy:         -513.2961953282 H       -13967.5001 eV
Force related energy:             -513.2961953282 H       -13967.5001 eV
Volume:                              0.417918E+05 au^3   0.619291E+04 A^3
Pressure:                            0.378791E-04 au     0.111444E+10 Pa
Maximal force component:             0.581025E-03

--------------------------------------------------------------------------------

***  Geometry step: 96


Total Energy:                     -513.2961957951 H       -13967.5001 eV
Extrapolated to 0:                -513.2961957951 H       -13967.5001 eV
Total Mermin free energy:         -513.2961957951 H       -13967.5001 eV
Force related energy:             -513.2961957951 H       -13967.5001 eV
Volume:                              0.417918E+05 au^3   0.619291E+04 A^3
Pressure:                            0.379009E-04 au     0.111508E+10 Pa
Maximal force component:             0.384799E-03

--------------------------------------------------------------------------------

***  Geometry step: 97


Total Energy:                     -513.2962019911 H       -13967.5003 eV
Extrapolated to 0:                -513.2962019911 H       -13967.5003 eV
Total Mermin free energy:         -513.2962019911 H       -13967.5003 eV
Force related energy:             -513.2962019911 H       -13967.5003 eV
Volume:                              0.417918E+05 au^3   0.619291E+04 A^3
Pressure:                            0.378547E-04 au     0.111372E+10 Pa
Maximal force component:             0.267733E-03

--------------------------------------------------------------------------------

***  Geometry step: 98


Total Energy:                     -513.2961923231 H       -13967.5001 eV
Extrapolated to 0:                -513.2961923231 H       -13967.5001 eV
Total Mermin free energy:         -513.2961923231 H       -13967.5001 eV
Force related energy:             -513.2961923231 H       -13967.5001 eV
Volume:                              0.417918E+05 au^3   0.619291E+04 A^3
Pressure:                            0.377812E-04 au     0.111156E+10 Pa
Maximal force component:             0.112086E-02

--------------------------------------------------------------------------------

***  Geometry step: 99


Total Energy:                     -513.2962021082 H       -13967.5003 eV
Extrapolated to 0:                -513.2962021082 H       -13967.5003 eV
Total Mermin free energy:         -513.2962021082 H       -13967.5003 eV
Force related energy:             -513.2962021082 H       -13967.5003 eV
Volume:                              0.417918E+05 au^3   0.619291E+04 A^3
Pressure:                            0.378466E-04 au     0.111349E+10 Pa
Maximal force component:             0.299600E-03

--------------------------------------------------------------------------------

***  Geometry step: 100


Total Energy:                     -513.2962088201 H       -13967.5005 eV
Extrapolated to 0:                -513.2962088201 H       -13967.5005 eV
Total Mermin free energy:         -513.2962088201 H       -13967.5005 eV
Force related energy:             -513.2962088201 H       -13967.5005 eV
Volume:                              0.417918E+05 au^3   0.619291E+04 A^3
Pressure:                            0.378366E-04 au     0.111319E+10 Pa
Maximal force component:             0.266563E-03
WARNING!
-> !!! Geometry did NOT converge!

--------------------------------------------------------------------------------
DFTB+ running times                          cpu [s]             wall clock [s]
--------------------------------------------------------------------------------
Pre-SCC initialisation                 +    31.33  (  9.9%)      6.00  (  6.4%)
SCC                                    +   168.09  ( 53.1%)     50.74  ( 54.3%)
Post-SCC processing                    +   117.15  ( 37.0%)     36.63  ( 39.2%)
--------------------------------------------------------------------------------
Missing                                +     0.01  (  0.0%)      0.00  (  0.0%)
Total                                  =   316.58  (100.0%)     93.38  (100.0%)
--------------------------------------------------------------------------------
