|===============================================================================
|
|  DFTB+ release 19.1
|
|  Copyright (C) 2006 - 2019  DFTB+ developers group
|
|===============================================================================
|
|  When publishing results obtained with DFTB+, please cite the following
|  reference:
|
|  * B. Aradi, B. Hourahine and T. Frauenheim,
|    DFTB+, a Sparse Matrix-Based Implementation of the DFTB Method,
|    J. Phys. Chem. A, 111 5678 (2007).  [doi: 10.1021/jp070186p]
|
|  You should also cite additional publications crediting the parametrization
|  data you use. Please consult the documentation of the SK-files for the
|  references.
|
|===============================================================================

Reading input file 'dftb_in.hsd'
Parser version: 7

--------------------------------------------------------------------------------
Reading SK-files:
Done.
WARNING!
-> The following 5 node(s) have been ignored by the parser:
(1)
Path: dftbplusinput/Driver/ConjugateGradient/KeepStationary
Line: 6-6 (File: dftb_in.hsd)
(2)
Path: dftbplusinput/Driver/ConjugateGradient/SCC
Line: 9-9 (File: dftb_in.hsd)
(3)
Path: dftbplusinput/Hamiltonian/DFTB/MaxAngularMomentum/N
Line: 18-18 (File: dftb_in.hsd)
(4)
Path: dftbplusinput/Hamiltonian/DFTB/MaxAngularMomentum/O
Line: 19-19 (File: dftb_in.hsd)
(5)
Path: dftbplusinput/Hamiltonian/DFTB/MaxAngularMomentum/Si
Line: 20-20 (File: dftb_in.hsd)



Processed input in HSD format written to 'dftb_pin.hsd'

Starting initialization...
--------------------------------------------------------------------------------
OpenMP threads:              8
Chosen random seed:          56749504
Mode:                        Conjugate gradient relaxation
Self consistent charges:     No
Spin polarisation:           No
Nr. of up electrons:            10.000000
Nr. of down electrons:          10.000000
Periodic boundaries:         No
Electronic solver:           Relatively robust
Nr. of moved atoms:                       6
Max. nr. of geometry steps:               0
Force tolerance:               0.100000E+11
Electronic temperature:        0.100000E-07 H      0.272114E-06 eV
Included shells:             C:  s, p
                             H:  s
                             F:  s, p
                            Ar:  s, p
Extra options:
                             Mulliken analysis
Force type                   original

--------------------------------------------------------------------------------

***  Geometry step: 0


Total Energy:                      -10.4686504162 H         -284.8665 eV
Extrapolated to 0:                 -10.4686504162 H         -284.8665 eV
Total Mermin free energy:          -10.4686504162 H         -284.8665 eV
Force related energy:              -10.4686504162 H         -284.8665 eV
Maximal force component:             0.182974E+01

Geometry converged

--------------------------------------------------------------------------------
DFTB+ running times                          cpu [s]             wall clock [s]
--------------------------------------------------------------------------------
SCC                                    +     0.10  ( 98.4%)      0.02  ( 94.1%)
--------------------------------------------------------------------------------
Missing                                +     0.00  (  1.6%)      0.00  (  5.9%)
Total                                  =     0.10  (100.0%)      0.02  (100.0%)
--------------------------------------------------------------------------------
