 81
 energy=61.674687884077542 cutoff=4.00000000 nneightol=1.20000000 pbc="T T T" Lattice="9.31284498       0.00000000       0.00000000       0.00000000       9.31284498       0.00000000       0.00000000       0.00000000       9.31284498" Properties=species:S:1:pos:R:3:forces:R:3:energies:R:1:Z:I:1:map_shift:I:3:n_neighb:I:1:force:R:3
 O               9.31278377      0.00001755      0.14465419     -0.00117270     -0.00532769     -2.96529187      1.66796788       8      -1       0       0      48      0.00162985      0.00143200     -1.16597865
 H               9.31283985      1.00357089      8.63554429     -0.00004911     -1.96597130      1.47964272      0.39672869       1      -1       0      -1      44     -0.00123623     -1.04137954      0.58762946
 H               9.31207883      8.31035238      8.63542745      0.00106480      1.96660562      1.48588310      0.39663599       1      -1      -1      -1      44     -0.00459073      1.04029680      0.58395990
 O               0.00008499      0.00006464      3.24878059     -0.00084178      0.00283195     -2.96760423      1.66820367       8       0       0       0      48     -0.00680011     -0.00168987     -1.17088362
 H               0.00028255      1.00291861      2.42663702     -0.00040250     -1.96699904      1.48656562      0.39658047       1       0       0       0      44      0.00295959     -1.04106958      0.58327216
 H               9.31224502      8.30914307      2.42748913      0.00115957      1.96774355      1.48148215      0.39668116       1      -1      -1       0      44     -0.00190817      1.04034461      0.59006836
 O               0.00009343      0.00006354      6.35304064      0.00069809      0.00107013     -2.96640585      1.66738307       8       0       0      -1      48     -0.00558792      0.00054296     -1.17223435
 H               0.00080514      1.00241622      5.53102580     -0.00120025     -1.96661631      1.48392851      0.39669592       1       0       0      -1      44      0.00435421     -1.04054957      0.58298438
 H               9.31259537      8.30959265      5.53092231      0.00061329      1.96645629      1.48226906      0.39663217       1      -1      -1      -1      44     -0.00319077      1.04166320      0.58431966
 O               9.31278919      3.10430194      0.14469464     -0.00165895      0.00364401     -2.96666621      1.66865773       8      -1       0       0      48      0.00603269     -0.00167883     -1.17895331
 H               9.31239101      4.10658801      8.63483345      0.00062588     -1.96692800      1.48623469      0.39664303       1      -1       0      -1      44     -0.00300028     -1.04250444      0.58402626
 H               9.31241309      2.10065271      8.63555376      0.00060932      1.96682016      1.48025646      0.39671603       1      -1       0      -1      44     -0.00213283      1.04199550      0.58981679
 O               9.31273835      3.10436194      3.24848707      0.00196200     -0.00479671     -2.96558527      1.66633318       8      -1       0       0      48     -0.00074905     -0.00181524     -1.17578530
 H               0.00043033      4.10753290      2.42666400     -0.00088011     -1.96534414      1.47938819      0.39671573       1       0       0       0      44      0.00279155     -1.04164684      0.58555797
 H               0.00046683      2.10237100      2.42622849     -0.00101402      1.96485388      1.48565001      0.39662432       1       0       0       0      44      0.00241816      1.04062521      0.57916231
 O               9.31270016      3.10419054      6.35314036      0.00074021     -0.00000830     -2.96943828      1.66913837       8      -1       0      -1      48     -0.01342472     -0.00017349     -1.17173301
 H               0.00008696      4.10740475      5.53095180     -0.00055185     -1.96790535      1.48502847      0.39662176       1       0       0      -1      44     -0.00032670     -1.04137963      0.58545096
 H               0.00001197      2.10096473      5.53106735     -0.00040724      1.96861587      1.48486044      0.39662976       1       0       0      -1      44      0.00132928      1.04059754      0.58812613
 O               9.31267532      6.20865460      0.14450472      0.00212511      0.00006723     -2.96812936      1.66747259       8      -1      -1       0      48      0.00650028      0.00211989     -1.16817139
 H               0.00075290      7.21124714      8.63496399     -0.00146389     -1.96575739      1.48550835      0.39660674       1       0      -1      -1      44      0.00645132     -1.04092762      0.58294932
 H               0.00016559      5.20529099      8.63594058     -0.00050738      1.96682412      1.48302176      0.39664297       1       0      -1      -1      44      0.00163498      1.03998960      0.58952043
 O               0.00011703      6.20866145      3.24876099     -0.00058647      0.00061546     -2.96589269      1.66854059       8       0      -1       0      48      0.00537581      0.00051956     -1.17199934
 H               0.00004708      7.21109665      2.42609037      0.00022231     -1.96688119      1.48418681      0.39668914       1       0      -1       0      44      0.00179486     -1.04376247      0.58058339
 H               9.31269261      5.20509694      2.42690267      0.00040009      1.96784974      1.48126568      0.39669032       1      -1      -1       0      44      0.00090979      1.04233699      0.58710991
 O               0.00003929      6.20858349      6.35296980      0.00146683     -0.00086120     -2.96358938      1.66594666       8       0      -1      -1      48     -0.00280086      0.00116729     -1.16914292
 H               9.31278747      7.21135437      5.53127006      0.00022694     -1.96518650      1.48114202      0.39670304       1      -1      -1      -1      44     -0.00050772     -1.04037356      0.58387593
 H               0.00092643      5.20597471      5.53111700     -0.00150553      1.96456783      1.48230844      0.39667981       1       0      -1      -1      44      0.00620128      1.04121171      0.58338483
 O               3.10410451      0.00009335      0.14463007      0.00136912      0.00006361     -2.96539756      1.66755059       8       0       0       0      48      0.00787061      0.00343678     -1.17181884
 H               3.10449957      1.00274858      8.63516806     -0.00071597     -1.96757185      1.48412897      0.39665137       1       0       0      -1      44      0.00152988     -1.04127604      0.58513870
 H               3.10449517      8.30951668      8.63603900     -0.00073935      1.96717815      1.48176425      0.39668150       1       0      -1      -1      44      0.00019540      1.03905494      0.59043202
 O               3.10428609      9.31263475      3.24881658     -0.00030003     -0.00232653     -2.97056385      1.66885898       8       0      -1       0      48     -0.00269729      0.00447728     -1.16807297
 H               3.10375042      1.00316751      2.42641961      0.00091129     -1.96708966      1.48343800      0.39662209       1       0       0       0      44     -0.00321862     -1.04262592      0.58482432
 H               3.10469308      8.31022960      2.42629258     -0.00064792      1.96567359      1.48674173      0.39662413       1       0      -1       0      44      0.00307409      1.04154224      0.58115116
 O               3.10422914      9.31270942      6.35302459      0.00061272     -0.00048180     -2.96215444      1.66839362       8       0      -1      -1      48      0.00504782      0.00144934     -1.17602065
 H               3.10466727      1.00362950      5.53135612     -0.00075018     -1.96561433      1.48014972      0.39672406       1       0       0      -1      44      0.00180381     -1.04080724      0.58850249
 H               3.10416567      8.30978495      5.53114402      0.00021713      1.96717918      1.48191238      0.39675024       1       0      -1      -1      44     -0.00213014      1.04201928      0.58632547
 O               3.10437593      3.10419669      0.14459357      0.00056830     -0.00092593     -2.96414550      1.66665394       8       0       0       0      48     -0.00275842     -0.00156447     -1.16082336
 H               3.10453560      4.10733471      8.63562108     -0.00022815     -1.96645962      1.48185358      0.39666115       1       0       0      -1      44      0.00161231     -1.03806740      0.58855082
 H               3.10447852      2.10134331      8.63600791     -0.00019754      1.96732567      1.48236580      0.39669471       1       0       0      -1      44      0.00082386      1.03788227      0.58847349
 O               3.10429006      3.10423447      3.24879582      0.00019214     -0.00116066     -2.96295854      1.66714563       8       0       0       0      48     -0.00103129      0.00268561     -1.16958328
 H               3.10439052      4.10731800      2.42681268     -0.00008833     -1.96605513      1.48139434      0.39669356       1       0       0       0      44     -0.00079791     -1.04297412      0.58593032
 H               3.10426662      2.10127219      2.42725391      0.00012713      1.96594911      1.48173166      0.39671728       1       0       0       0      44     -0.00035956      1.04023691      0.58691111
 O               3.10440624      3.10420805      6.35324542      0.00055929      0.00413016     -2.96795933      1.66943695       8       0       0      -1      48      0.00132784     -0.00017782     -1.17677189
 H               3.10479495      4.10714085      5.53122887     -0.00056407     -1.96989401      1.48529206      0.39665427       1       0       0      -1      44      0.00490271     -1.04000148      0.58649278
 H               3.10430602      2.10088703      5.53052247      0.00012784      1.96574875      1.48235435      0.39668494       1       0       0      -1      44      0.00247669      1.04409901      0.58625170
 O               3.10415152      6.20854176      0.14455815      0.00091589     -0.00093071     -2.96549560      1.66722670       8       0      -1       0      48     -0.00786191      0.00159272     -1.17294947
 H               3.10466145      7.21133539      8.63507342     -0.00091724     -1.96594771      1.48267491      0.39666609       1       0      -1      -1      44      0.00166765     -1.04213215      0.58334982
 H               3.10410903      5.20571383      8.63562174      0.00002507      1.96725136      1.48270707      0.39668409       1       0      -1      -1      44     -0.00166907      1.04061190      0.58730178
 O               3.10415364      6.20845133      3.24880697     -0.00134066      0.00254303     -2.96880996      1.66866817       8       0      -1       0      48     -0.00404275     -0.00176913     -1.16816436
 H               3.10391973      7.21129079      2.42628558      0.00030361     -1.96542963      1.48611160      0.39659260       1       0      -1       0      44     -0.00046784     -1.04180968      0.58245839
 H               3.10375182      5.20522894      2.42689116      0.00063621      1.96785510      1.48257712      0.39668808       1       0      -1       0      44     -0.00341296      1.04046808      0.58748747
 O               3.10428882      6.20857465      6.35320478     -0.00202901     -0.00325975     -2.96467745      1.66811120       8       0      -1      -1      48     -0.00342435      0.00650077     -1.16594450
 H               3.10356316      7.21216419      5.53105027      0.00123003     -1.96657781      1.48124846      0.39667295       1       0      -1      -1      44     -0.00716646     -1.04288717      0.58845621
 H               3.10381901      5.20568050      5.53174792      0.00070545      1.96886613      1.48366908      0.39669932       1       0      -1      -1      44     -0.00531851      1.03830313      0.58931216
 O               6.20856905      9.31277975      0.14447948      0.00071989     -0.00515334     -2.96651611      1.66793961       8      -1      -1       0      48     -0.00371036     -0.00007948     -1.17037018
 H               6.20902418      1.00330399      8.63503989     -0.00088585     -1.96413587      1.48089196      0.39669311       1      -1       0      -1      44      0.00447123     -1.04390831      0.58718944
 H               6.20843664      8.31019899      8.63546407      0.00019724      1.96686811      1.48578597      0.39663612       1      -1      -1      -1      44     -0.00199574      1.03943714      0.58582030
 O               6.20867582      9.31276220      3.24886463     -0.00043440      0.00000985     -2.96782422      1.66851135       8      -1      -1       0      48      0.00178076      0.00016258     -1.17483765
 H               6.20812651      1.00284786      2.42639627      0.00107225     -1.96534694      1.48388915      0.39665275       1      -1       0       0      44     -0.00218013     -1.04384880      0.58351621
 H               6.20898268      8.30997263      2.42651368     -0.00058283      1.96635054      1.48379886      0.39667306       1      -1      -1       0      44      0.00459861      1.04146812      0.58512591
 O               6.20862930      0.00021541      6.35304006     -0.00006103      0.00187815     -2.96884229      1.66811338       8      -1       0      -1      48      0.00323805     -0.00356871     -1.17033016
 H               6.20847327      1.00255036      5.53059643      0.00019748     -1.96759143      1.48590129      0.39663282       1      -1       0      -1      44     -0.00052234     -1.04132068      0.58283066
 H               6.20875050      8.30976678      5.53083934     -0.00021661      1.96533043      1.48266147      0.39664529       1      -1      -1      -1      44      0.00007530      1.04230411      0.58560523
 O               6.20866862      3.10420920      0.14453648      0.00153125     -0.00023101     -2.96680116      1.67049402       8      -1       0       0      48      0.00173865      0.00002799     -1.17515741
 H               6.20875415      4.10753329      8.63501784     -0.00010030     -1.96695391      1.48327319      0.39671149       1      -1       0      -1      44      0.00052502     -1.04449376      0.58353318
 H               6.20936116      2.10070238      8.63502092     -0.00122250      1.96704761      1.48331700      0.39668789       1      -1       0      -1      44      0.00563677      1.04454205      0.58417603
 O               6.20856883      3.10441449      3.24878300     -0.00207305     -0.00012699     -2.96375747      1.66729636       8      -1       0       0      48     -0.00592606     -0.00258525     -1.16927260
 H               6.20824658      4.10714810      2.42726393      0.00059348     -1.96877822      1.48181264      0.39674655       1      -1       0       0      44     -0.00179463     -1.03913584      0.58646303
 H               6.20775138      2.10097874      2.42683330      0.00144624      1.96439447      1.48181389      0.39665198       1      -1       0       0      44     -0.00638003      1.04138041      0.58567333
 O               6.20852780      3.10438056      6.35288069     -0.00048662     -0.00385283     -2.96290117      1.66680785       8      -1       0      -1      48      0.00922124      0.00388367     -1.16855922
 H               6.20776615      4.10761352      5.53121853      0.00132548     -1.96667872      1.47982012      0.39673080       1      -1       0      -1      44     -0.00585060     -1.04052462      0.58751849
 H               6.20903154      2.10148620      5.53133362     -0.00085356      1.96695862      1.48345108      0.39665348       1      -1       0      -1      44      0.00163055      1.03964428      0.58558733
 O               6.20853365      6.20874604      0.14455674      0.00040150      0.00403702     -2.96962500      1.66941274       8      -1      -1       0      48      0.00613461     -0.00191605     -1.17283695
 H               6.20879614      7.21102483      8.63460320     -0.00043286     -1.96759779      1.48813286      0.39660139       1      -1      -1      -1      44     -0.00052936     -1.04102533      0.58068914
 H               6.20843281      5.20484639      8.63541585      0.00014177      1.96605438      1.48134229      0.39668213       1      -1      -1      -1      44     -0.00297294      1.04268104      0.58868871
 O               6.20881422      6.20860785      3.24886827     -0.00044564     -0.00004301     -2.96527053      1.66855895       8      -1      -1       0      48      0.00600607      0.00040730     -1.18078472
 H               6.20908393      7.21186961      2.42679580     -0.00048718     -1.96658898      1.48314606      0.39666581       1      -1      -1       0      44      0.00586458     -1.04094574      0.58680214
 H               6.20822893      5.20521986      2.42725921      0.00107672      1.97015311      1.48244730      0.39669023       1      -1      -1       0      44     -0.00065207      1.03999840      0.58902593
 O               6.20846517      6.20854313      6.35298530     -0.00013150      0.00144551     -2.96490524      1.66868157       8      -1      -1      -1      48     -0.00789666      0.00250872     -1.17491596
 H               6.20869403      7.21171031      5.53090335     -0.00042304     -1.96610055      1.48328099      0.39667467       1      -1      -1      -1      44      0.00098704     -1.04071010      0.58576995
 H               6.20824940      5.20522396      5.53108652      0.00047826      1.96863036      1.48170491      0.39671205       1      -1      -1      -1      44     -0.00160067      1.04145702      0.58893267
 81
 energy=59.219949265968069 cutoff=4.00000000 nneightol=1.20000000 pbc="T T T" Lattice="9.31284498       0.00000000       0.00000000       0.00000000       9.31284498       0.00000000       0.00000000       0.00000000       9.31284498" Properties=species:S:1:pos:R:3:forces:R:3:energies:R:1:Z:I:1:map_shift:I:3:n_neighb:I:1:force:R:3
 O               9.31207932      9.31252548      0.13382267     -0.00086509     -0.07838874      2.22414800      0.43516589       8      -1      -1       0      44     -0.04162601     -0.06828272      1.92219820
 H               0.00203870      0.78452989      8.72837962      0.00510173      1.21438861     -1.14257769      0.73893423       1       0       0      -1      41      0.03202342      1.51768874     -0.98519125
 H               9.30971063      8.52746747      8.72280497     -0.00439152     -1.13985832     -1.08113437      0.72208037       1      -1      -1      -1      41     -0.04162215     -1.42932273     -0.94628558
 O               0.00021632      0.00063019      3.23738932      0.00176489      0.00833903      2.22322626      0.43431247       8       0       0       0      44     -0.04980809      0.01657306      1.92201019
 H               0.00150945      0.78559121      2.51647580      0.00242811      1.17771641     -1.11448268      0.73090284       1       0       0       0      41      0.03923698      1.47053830     -0.96729797
 H               9.31055312      8.52460242      2.52089920     -0.00425166     -1.18459167     -1.10892702      0.73133461       1      -1      -1       0      41     -0.02186227     -1.50513449     -0.92780610
 O               0.00018190      0.00025495      6.34166441     -0.00854586      0.03337837      2.25306255      0.43236772       8       0       0      -1      44     -0.03569963      0.05169767      1.94543909
 H               0.00661913      0.78445329      5.61925450      0.01100266      1.17675780     -1.11231398      0.72895889       1       0       0      -1      41      0.09334031      1.45612311     -0.97020699
 H               9.31217787      8.52945606      5.62118793     -0.00196125     -1.20968192     -1.14056318      0.73648043       1      -1      -1      -1      41     -0.01204004     -1.49223052     -0.99670268
 O               0.00003152      3.10457670      0.13341524      0.00923934      0.05969607      2.27792620      0.42990788       8       0       0       0      44      0.01463253      0.07412856      1.97469367
 H               9.30917917      3.88612241      8.72091457     -0.00626835      1.17979990     -1.11969283      0.72865208       1      -1       0      -1      41     -0.04564225      1.44079347     -0.98877118
 H               9.31078296      2.32008448      8.72804128     -0.00363615     -1.23396119     -1.15768229      0.74048797       1      -1       0      -1      41     -0.01980385     -1.53205664     -0.98708025
 O               9.31239734      3.10415512      3.23608928     -0.00515335     -0.05335693      2.21751495      0.43565708       8      -1       0       0      44     -0.01836413     -0.04295781      1.90314804
 H               0.00289344      3.88971167      2.51746807      0.00597090      1.19915967     -1.12908975      0.73578196       1       0       0       0      41      0.03868304      1.50018173     -0.97658134
 H               9.31199898      2.31904409      2.51308009     -0.00097356     -1.14829234     -1.08876295      0.72443352       1      -1       0       0      41     -0.01521860     -1.43520638     -0.96166116
 O               9.31246887      3.10400193      6.34214646     -0.00085928     -0.00916888      2.23941838      0.43345000       8      -1       0      -1      44     -0.01979802     -0.02292020      1.93124986
 H               0.00026606      3.88858301      5.62141585      0.00095684      1.18945096     -1.12358528      0.73271822       1       0       0      -1      41     -0.00337277      1.47983540     -0.97348766
 H               9.31231559      2.31946084      5.62075306     -0.00080563     -1.18239294     -1.11641854      0.73082086       1      -1       0      -1      41     -0.01568456     -1.47431361     -0.96615221
 O               9.31220948      6.20912433      0.13334278     -0.01009096      0.02839389      2.21577848      0.43587644       8      -1      -1       0      44     -0.00203408      0.03251269      1.94283549
 H               0.00372484      6.99395464      8.72368109      0.00734822      1.15932195     -1.09713184      0.72670657       1       0      -1      -1      41      0.06506943      1.45230530     -0.94842227
 H               0.00164811      5.42427496      8.72590537      0.00387044     -1.18958097     -1.11891872      0.73290989       1       0      -1      -1      41      0.03219085     -1.48701047     -0.96862134
 O               0.00062444      6.20932748      3.23726034      0.00852073      0.01739003      2.24660708      0.43308627       8       0      -1       0      44      0.06900219      0.02319663      1.96112687
 H               9.31166676      6.99112062      2.51286998     -0.00266410      1.17926874     -1.12282133      0.73092150       1      -1      -1       0      41     -0.01248899      1.44745274     -1.00681529
 H               9.30985269      5.42325894      2.51830835     -0.00625271     -1.19537402     -1.12334900      0.73326060       1      -1      -1       0      41     -0.04024909     -1.49440344     -0.97086933
 O               0.00062869      6.20845749      6.34127500     -0.00336026      0.01062129      2.19283481      0.43784569       8       0      -1      -1      44      0.03275785      0.01084775      1.91719149
 H               0.00191808      6.99448899      5.62031245      0.00220584      1.15671166     -1.09335858      0.72723047       1       0      -1      -1      41      0.01998213      1.45694083     -0.96170006
 H               0.00178484      5.42163699      5.62183789      0.00193657     -1.16580926     -1.09961721      0.72926156       1       0      -1      -1      41      0.01922487     -1.47484848     -0.95924449
 O               3.10359106      0.00098352      0.13397938     -0.00574828      0.00131482      2.22450196      0.43496870       8       0       0       0      44      0.01793272      0.02586616      1.92218250
 H               3.10490872      0.78288859      8.72279788      0.00217929      1.17787111     -1.12131574      0.73148335       1       0       0      -1      41      0.00684019      1.45587130     -0.99257865
 H               3.10589289      8.52570232      8.72895224      0.00372075     -1.17797035     -1.10346353      0.72968151       1       0      -1      -1      41      0.02097681     -1.49296440     -0.92525360
 O               3.10405715      9.31242113      3.23738615     -0.00233994     -0.02878842      2.27512863      0.42957499       8       0      -1       0      44     -0.05983964     -0.00915171      1.99272212
 H               3.10286154      0.78349542      2.51787394     -0.00211144      1.22239958     -1.15138792      0.73836185       1       0       0       0      41     -0.01985379      1.50684774     -0.99301684
 H               3.10663729      8.52663377      2.51754244      0.00442132     -1.19314271     -1.12365196      0.73152970       1       0      -1       0      41      0.03506160     -1.48786781     -0.95809628
 O               3.10369951      9.31282763      6.34145885     -0.00950794     -0.04516777      2.24939523      0.43238079       8       0      -1      -1      44     -0.01353288     -0.03692062      1.93896723
 H               3.10705433      0.78549026      5.62332950      0.00554794      1.21365350     -1.14076884      0.73745018       1       0       0      -1      41      0.03732869      1.51550129     -0.97300669
 H               3.10624580      8.52847938      5.61888707      0.00432196     -1.17057518     -1.10840119      0.72795586       1       0      -1      -1      41      0.02811220     -1.45118619     -0.96625731
 O               3.10494303      3.10375606      0.13399047      0.00265716     -0.01585726      2.22552919      0.43464080       8       0       0       0      44     -0.01239626     -0.00103156      1.95443894
 H               3.10556587      3.88863621      8.72648508      0.00154600      1.18769376     -1.12112393      0.73276868       1       0       0      -1      41      0.02485333      1.48029250     -0.97231982
 H               3.10251582      2.31763334      8.72651664     -0.00411658     -1.17245718     -1.10496000      0.72898017       1       0       0      -1      41     -0.02161788     -1.47769087     -0.94887105
 O               3.10452403      3.10466058      3.23696374      0.00350802     -0.01316118      2.29753768      0.42724832       8       0       0       0      44      0.02158511     -0.00380811      1.98585789
 H               3.10458714      3.88881669      2.51771430      0.00059786      1.22778203     -1.15550658      0.73848219       1       0       0       0      41     -0.00800897      1.51219132     -0.98733202
 H               3.10235987      2.31952047      2.51770127     -0.00366229     -1.21465968     -1.14165549      0.73517332       1       0       0       0      41     -0.03690041     -1.49924307     -0.97240113
 O               3.10474195      3.10345834      6.34228240     -0.00248371      0.01028303      2.22100520      0.43568103       8       0       0      -1      44     -0.01856844      0.01627887      1.88760524
 H               3.10572434      3.88791706      5.62019246      0.00183359      1.17095045     -1.10623856      0.72900016       1       0       0      -1      41      0.02845712      1.46196441     -0.95705733
 H               3.10560277      2.31908206      5.62075675      0.00124368     -1.17741182     -1.11451023      0.73108131       1       0       0      -1      41      0.02474281     -1.47879911     -0.95845351
 O               3.10372162      6.20913937      0.13388146      0.00292383     -0.03998885      2.22591108      0.43500833       8       0      -1       0      44      0.00338547     -0.01883085      1.92388543
 H               3.10504678      6.99124315      8.72431768      0.00230532      1.19688720     -1.13585314      0.73561881       1       0      -1      -1      41      0.01156051      1.48345039     -1.00403318
 H               3.10025425      5.42241054      8.72583540     -0.00602076     -1.15725972     -1.09025273      0.72536296       1       0      -1      -1      41     -0.06076890     -1.45983882     -0.93792173
 O               3.10371769      6.20837627      3.23757835      0.00403048      0.00608245      2.23491220      0.43399277       8       0      -1       0      44     -0.03380962      0.00404169      1.94607545
 H               3.10536331      6.99345607      2.51665632      0.00283240      1.17960887     -1.11429778      0.73065650       1       0      -1       0      41      0.02099178      1.47031579     -0.96389628
 H               3.09926569      5.42394068      2.51652134     -0.00776292     -1.18608680     -1.12075254      0.73217185       1       0      -1       0      41     -0.06733644     -1.47722880     -0.96907282
 O               3.10417310      6.20852510      6.34178070      0.00911886     -0.04846634      2.25144907      0.43211259       8       0      -1      -1      44     -0.03531250     -0.03605994      1.97377128
 H               3.10071179      6.99303795      5.62286633     -0.00607123      1.21811365     -1.14549762      0.73822382       1       0      -1      -1      41     -0.06601443      1.51566643     -0.98129377
 H               3.10161554      5.42343722      5.61987531     -0.00425378     -1.17158287     -1.10580711      0.72752325       1       0      -1      -1      41     -0.04775491     -1.45884991     -0.95201068
 O               6.20807045      9.31262757      0.13246904     -0.00246829     -0.05438485      2.25779772      0.43151518       8      -1      -1       0      44     -0.03409082     -0.05291493      1.92846766
 H               6.20710537      0.78223786      8.72476366     -0.00204797      1.22407516     -1.15655582      0.73994849       1      -1       0      -1      41     -0.01966818      1.50457238     -1.00963795
 H               6.21075172      8.52572761      8.72506735      0.00461636     -1.17043260     -1.10109762      0.72677253       1      -1      -1      -1      41      0.03857612     -1.46753597     -0.93501613