 81
 energy=75.443462300515392 cutoff=4.00000000 nneightol=1.20000000 pbc="T T T" Lattice="9.31284498       0.00000000       0.00000000       0.00000000       9.31284498       0.00000000       0.00000000       0.00000000       9.31284498" Properties=species:S:1:pos:R:3:forces:R:3:energies:R:1:Z:I:1:map_shift:I:3:n_neighb:I:1:force:R:3
 O               0.00000000      0.00000000      0.11926200     -0.00000000     -0.00000000      8.11183591     -0.04479790       8       0       0       0      44      0.00000000      0.00000004      6.01146969
 H               0.00000000      0.76323900      8.83579798      0.00000000      5.21893682     -4.05591796      1.35042099       1       0       0      -1      41      0.00000000      4.31570230     -3.00573483
 H               0.00000000      8.54960598      8.83579798      0.00000000     -5.21893682     -4.05591796      1.35042099       1       0      -1      -1      41      0.00000000     -4.31570234     -3.00573486
 O               0.00000000      0.00000000      3.22354366     -0.00000000      0.00000000      8.11183591     -0.04479790       8       0       0       0      44      0.00000000      0.00000004      6.01146964
 H               0.00000000      0.76323900      2.62723466      0.00000000      5.21893682     -4.05591796      1.35042099       1       0       0       0      41      0.00000000      4.31570226     -3.00573480
 H               0.00000000      8.54960598      2.62723466      0.00000000     -5.21893682     -4.05591796      1.35042099       1       0      -1       0      41     -0.00000000     -4.31570230     -3.00573484
 O               0.00000000      0.00000000      6.32782532     -0.00000000      0.00000000      8.11183591     -0.04479790       8       0       0      -1      44      0.00000000      0.00000004      6.01146964
 H               0.00000000      0.76323900      5.73151632      0.00000000      5.21893682     -4.05591796      1.35042099       1       0       0      -1      41      0.00000000      4.31570226     -3.00573480
 H               0.00000000      8.54960598      5.73151632      0.00000000     -5.21893682     -4.05591796      1.35042099       1       0      -1      -1      41     -0.00000000     -4.31570230     -3.00573484
 O               0.00000000      3.10428166      0.11926200     -0.00000000      0.00000000      8.11183591     -0.04479790       8       0       0       0      44      0.00000000      0.00000000      6.01146965
 H               0.00000000      3.86752066      8.83579798      0.00000000      5.21893682     -4.05591796      1.35042099       1       0       0      -1      41      0.00000000      4.31570230     -3.00573483
 H               0.00000000      2.34104266      8.83579798      0.00000000     -5.21893682     -4.05591796      1.35042099       1       0       0      -1      41      0.00000000     -4.31570230     -3.00573483
 O               0.00000000      3.10428166      3.22354366     -0.00000000     -0.00000000      8.11183591     -0.04479790       8       0       0       0      44      0.00000000      0.00000000      6.01146961
 H               0.00000000      3.86752066      2.62723466      0.00000000      5.21893682     -4.05591796      1.35042099       1       0       0       0      41      0.00000000      4.31570226     -3.00573480
 H               0.00000000      2.34104266      2.62723466      0.00000000     -5.21893682     -4.05591796      1.35042099       1       0       0       0      41     -0.00000000     -4.31570226     -3.00573480
 O               0.00000000      3.10428166      6.32782532     -0.00000000     -0.00000000      8.11183591     -0.04479790       8       0       0      -1      44      0.00000000      0.00000000      6.01146961
 H               0.00000000      3.86752066      5.73151632      0.00000000      5.21893682     -4.05591796      1.35042099       1       0       0      -1      41      0.00000000      4.31570226     -3.00573480
 H               0.00000000      2.34104266      5.73151632      0.00000000     -5.21893682     -4.05591796      1.35042099       1       0       0      -1      41     -0.00000000     -4.31570226     -3.00573480
 O               0.00000000      6.20856332      0.11926200     -0.00000000     -0.00000000      8.11183591     -0.04479790       8       0      -1       0      44      0.00000000     -0.00000000      6.01146965
 H               0.00000000      6.97180232      8.83579798      0.00000000      5.21893682     -4.05591796      1.35042099       1       0      -1      -1      41     -0.00000000      4.31570230     -3.00573482
 H               0.00000000      5.44532432      8.83579798      0.00000000     -5.21893682     -4.05591796      1.35042099       1       0      -1      -1      41      0.00000000     -4.31570230     -3.00573483
 O               0.00000000      6.20856332      3.22354366     -0.00000000     -0.00000000      8.11183591     -0.04479790       8       0      -1       0      44      0.00000000     -0.00000000      6.01146961
 H               0.00000000      6.97180232      2.62723466      0.00000000      5.21893682     -4.05591796      1.35042099       1       0      -1       0      41     -0.00000000      4.31570226     -3.00573480
 H               0.00000000      5.44532432      2.62723466      0.00000000     -5.21893682     -4.05591796      1.35042099       1       0      -1       0      41      0.00000000     -4.31570226     -3.00573480
 O               0.00000000      6.20856332      6.32782532     -0.00000000     -0.00000000      8.11183591     -0.04479790       8       0      -1      -1      44      0.00000000     -0.00000000      6.01146961
 H               0.00000000      6.97180232      5.73151632      0.00000000      5.21893682     -4.05591796      1.35042099       1       0      -1      -1      41     -0.00000000      4.31570226     -3.00573480
 H               0.00000000      5.44532432      5.73151632      0.00000000     -5.21893682     -4.05591796      1.35042099       1       0      -1      -1      41      0.00000000     -4.31570226     -3.00573480
 O               3.10428166      0.00000000      0.11926200     -0.00000000      0.00000000      8.11183591     -0.04479790       8       0       0       0      44     -0.00000000      0.00000004      6.01146969
 H               3.10428166      0.76323900      8.83579798      0.00000000      5.21893682     -4.05591796      1.35042099       1       0       0      -1      41      0.00000000      4.31570230     -3.00573483
 H               3.10428166      8.54960598      8.83579798      0.00000000     -5.21893682     -4.05591796      1.35042099       1       0      -1      -1      41     -0.00000000     -4.31570234     -3.00573486
 O               3.10428166      0.00000000      3.22354366     -0.00000000     -0.00000000      8.11183591     -0.04479790       8       0       0       0      44      0.00000000      0.00000004      6.01146964
 H               3.10428166      0.76323900      2.62723466     -0.00000000      5.21893682     -4.05591796      1.35042099       1       0       0       0      41      0.00000000      4.31570226     -3.00573480
 H               3.10428166      8.54960598      2.62723466     -0.00000000     -5.21893682     -4.05591796      1.35042099       1       0      -1       0      41     -0.00000000     -4.31570230     -3.00573484
 O               3.10428166      0.00000000      6.32782532     -0.00000000     -0.00000000      8.11183591     -0.04479790       8       0       0      -1      44      0.00000000      0.00000004      6.01146964
 H               3.10428166      0.76323900      5.73151632      0.00000000      5.21893682     -4.05591796      1.35042099       1       0       0      -1      41      0.00000000      4.31570226     -3.00573480
 H               3.10428166      8.54960598      5.73151632      0.00000000     -5.21893682     -4.05591796      1.35042099       1       0      -1      -1      41     -0.00000000     -4.31570230     -3.00573484
 O               3.10428166      3.10428166      0.11926200     -0.00000000     -0.00000000      8.11183591     -0.04479790       8       0       0       0      44     -0.00000000      0.00000000      6.01146965
 H               3.10428166      3.86752066      8.83579798     -0.00000000      5.21893682     -4.05591796      1.35042099       1       0       0      -1      41      0.00000000      4.31570230     -3.00573483
 H               3.10428166      2.34104266      8.83579798     -0.00000000     -5.21893682     -4.05591796      1.35042099       1       0       0      -1      41     -0.00000000     -4.31570230     -3.00573483
 O               3.10428166      3.10428166      3.22354366     -0.00000000     -0.00000000      8.11183591     -0.04479790       8       0       0       0      44      0.00000000      0.00000000      6.01146961
 H               3.10428166      3.86752066      2.62723466     -0.00000000      5.21893682     -4.05591796      1.35042099       1       0       0       0      41      0.00000000      4.31570226     -3.00573480
 H               3.10428166      2.34104266      2.62723466      0.00000000     -5.21893682     -4.05591796      1.35042099       1       0       0       0      41      0.00000000     -4.31570226     -3.00573480
 O               3.10428166      3.10428166      6.32782532      0.00000000     -0.00000000      8.11183591     -0.04479790       8       0       0      -1      44      0.00000000      0.00000000      6.01146961
 H               3.10428166      3.86752066      5.73151632     -0.00000000      5.21893682     -4.05591796      1.35042099       1       0       0      -1      41      0.00000000      4.31570226     -3.00573480
 H               3.10428166      2.34104266      5.73151632      0.00000000     -5.21893682     -4.05591796      1.35042099       1       0       0      -1      41      0.00000000     -4.31570226     -3.00573480
 O               3.10428166      6.20856332      0.11926200     -0.00000000     -0.00000000      8.11183591     -0.04479790       8       0      -1       0      44     -0.00000000     -0.00000000      6.01146965
 H               3.10428166      6.97180232      8.83579798      0.00000000      5.21893682     -4.05591796      1.35042099       1       0      -1      -1      41      0.00000000      4.31570230     -3.00573482
 H               3.10428166      5.44532432      8.83579798      0.00000000     -5.21893682     -4.05591796      1.35042099       1       0      -1      -1      41      0.00000000     -4.31570230     -3.00573483
 O               3.10428166      6.20856332      3.22354366      0.00000000     -0.00000000      8.11183591     -0.04479790       8       0      -1       0      44     -0.00000000     -0.00000000      6.01146961
 H               3.10428166      6.97180232      2.62723466      0.00000000      5.21893682     -4.05591796      1.35042099       1       0      -1       0      41      0.00000000      4.31570226     -3.00573480
 H               3.10428166      5.44532432      2.62723466     -0.00000000     -5.21893682     -4.05591796      1.35042099       1       0      -1       0      41      0.00000000     -4.31570226     -3.00573480
 O               3.10428166      6.20856332      6.32782532      0.00000000     -0.00000000      8.11183591     -0.04479790       8       0      -1      -1      44     -0.00000000     -0.00000000      6.01146961
 H               3.10428166      6.97180232      5.73151632     -0.00000000      5.21893682     -4.05591796      1.35042099       1       0      -1      -1      41      0.00000000      4.31570226     -3.00573480
 H               3.10428166      5.44532432      5.73151632      0.00000000     -5.21893682     -4.05591796      1.35042099       1       0      -1      -1      41      0.00000000     -4.31570226     -3.00573480
 O               6.20856332      0.00000000      0.11926200      0.00000000     -0.00000000      8.11183591     -0.04479790       8      -1       0       0      44     -0.00000000      0.00000004      6.01146969
 H               6.20856332      0.76323900      8.83579798     -0.00000000      5.21893682     -4.05591796      1.35042099       1      -1       0      -1      41     -0.00000000      4.31570230     -3.00573483
 H               6.20856332      8.54960598      8.83579798     -0.00000000     -5.21893682     -4.05591796      1.35042099       1      -1      -1      -1      41     -0.00000000     -4.31570234     -3.00573486
 O               6.20856332      0.00000000      3.22354366      0.00000000      0.00000000      8.11183591     -0.04479790       8      -1       0       0      44     -0.00000000      0.00000004      6.01146964
 H               6.20856332      0.76323900      2.62723466     -0.00000000      5.21893682     -4.05591796      1.35042099       1      -1       0       0      41     -0.00000000      4.31570226     -3.00573480
 H               6.20856332      8.54960598      2.62723466     -0.00000000     -5.21893682     -4.05591796      1.35042099       1      -1      -1       0      41      0.00000000     -4.31570230     -3.00573484
 O               6.20856332      0.00000000      6.32782532      0.00000000     -0.00000000      8.11183591     -0.04479790       8      -1       0      -1      44     -0.00000000      0.00000004      6.01146964
 H               6.20856332      0.76323900      5.73151632     -0.00000000      5.21893682     -4.05591796      1.35042099       1      -1       0      -1      41     -0.00000000      4.31570226     -3.00573480
 H               6.20856332      8.54960598      5.73151632     -0.00000000     -5.21893682     -4.05591796      1.35042099       1      -1      -1      -1      41      0.00000000     -4.31570230     -3.00573484
 O               6.20856332      3.10428166      0.11926200      0.00000000     -0.00000000      8.11183591     -0.04479790       8      -1       0       0      44     -0.00000000      0.00000000      6.01146965
 H               6.20856332      3.86752066      8.83579798     -0.00000000      5.21893682     -4.05591796      1.35042099       1      -1       0      -1      41     -0.00000000      4.31570230     -3.00573483
 H               6.20856332      2.34104266      8.83579798     -0.00000000     -5.21893682     -4.05591796      1.35042099       1      -1       0      -1      41     -0.00000000     -4.31570230     -3.00573483
 O               6.20856332      3.10428166      3.22354366      0.00000000     -0.00000000      8.11183591     -0.04479790       8      -1       0       0      44     -0.00000000      0.00000000      6.01146961
 H               6.20856332      3.86752066      2.62723466     -0.00000000      5.21893682     -4.05591796      1.35042099       1      -1       0       0      41     -0.00000000      4.31570226     -3.00573480
 H               6.20856332      2.34104266      2.62723466      0.00000000     -5.21893682     -4.05591796      1.35042099       1      -1       0       0      41      0.00000000     -4.31570226     -3.00573480
 O               6.20856332      3.10428166      6.32782532      0.00000000     -0.00000000      8.11183591     -0.04479790       8      -1       0      -1      44     -0.00000000      0.00000000      6.01146961
 H               6.20856332      3.86752066      5.73151632     -0.00000000      5.21893682     -4.05591796      1.35042099       1      -1       0      -1      41     -0.00000000      4.31570226     -3.00573480
 H               6.20856332      2.34104266      5.73151632     -0.00000000     -5.21893682     -4.05591796      1.35042099       1      -1       0      -1      41      0.00000000     -4.31570226     -3.00573480
 O               6.20856332      6.20856332      0.11926200      0.00000000     -0.00000000      8.11183591     -0.04479790       8      -1      -1       0      44     -0.00000000     -0.00000000      6.01146965
 H               6.20856332      6.97180232      8.83579798     -0.00000000      5.21893682     -4.05591796      1.35042099       1      -1      -1      -1      41      0.00000000      4.31570230     -3.00573482
 H               6.20856332      5.44532432      8.83579798     -0.00000000     -5.21893682     -4.05591796      1.35042099       1      -1      -1      -1      41     -0.00000000     -4.31570230     -3.00573483
 O               6.20856332      6.20856332      3.22354366      0.00000000     -0.00000000      8.11183591     -0.04479790       8      -1      -1       0      44     -0.00000000     -0.00000000      6.01146961
 H               6.20856332      6.97180232      2.62723466     -0.00000000      5.21893682     -4.05591796      1.35042099       1      -1      -1       0      41      0.00000000      4.31570226     -3.00573480
 H               6.20856332      5.44532432      2.62723466     -0.00000000     -5.21893682     -4.05591796      1.35042099       1      -1      -1       0      41     -0.00000000     -4.31570226     -3.00573480
 O               6.20856332      6.20856332      6.32782532      0.00000000     -0.00000000      8.11183591     -0.04479790       8      -1      -1      -1      44     -0.00000000     -0.00000000      6.01146961
 H               6.20856332      6.97180232      5.73151632     -0.00000000      5.21893682     -4.05591796      1.35042099       1      -1      -1      -1      41      0.00000000      4.31570226     -3.00573480
 H               6.20856332      5.44532432      5.73151632     -0.00000000     -5.21893682     -4.05591796      1.35042099       1      -1      -1      -1      41     -0.00000000     -4.31570226     -3.00573480
 81
 energy=55.998218325084764 cutoff=4.00000000 nneightol=1.20000000 pbc="T T T" Lattice="9.31284498       0.00000000       0.00000000       0.00000000       9.31284498       0.00000000       0.00000000       0.00000000       9.31284498" Properties=species:S:1:pos:R:3:forces:R:3:energies:R:1:Z:I:1:map_shift:I:3:n_neighb:I:1:force:R:3
 O               9.31254721      9.31255691      0.13890618     -0.00050839      0.02197547     -2.00170801      1.11050463       8      -1      -1       0      48     -0.00587654      0.04319067     -0.72234241
 H               0.00095973      0.90807789      8.68138633     -0.00140057     -1.38957110      1.00764197      0.43129081       1       0       0      -1      44      0.00584988     -0.54603692      0.38552268
 H               9.31095933      8.40905122      8.68266784      0.00151069      1.36969274      0.99413297      0.43595184       1      -1      -1      -1      44     -0.00992139      0.51477799      0.36166273
 O               0.00009991      0.00033675      3.24293382     -0.00141427     -0.00012982     -2.00499282      1.11191375       8       0       0       0      48     -0.02237506     -0.00476511     -0.74959808
 H               0.00049332      0.90657431      2.47314237     -0.00045617     -1.38586692      1.00566932      0.43315643       1       0       0       0      44      0.01190798     -0.53931716      0.37299126
 H               9.31134253      8.40510117      2.47543148      0.00194729      1.38579092      1.00049518      0.43345239       1      -1      -1       0      44     -0.00242424      0.53578695      0.39547222
 O               0.00016998      0.00022653      6.34724522      0.00285121     -0.01249096     -2.01441073      1.11291884       8       0       0      -1      48     -0.01465418     -0.01385790     -0.76202810
 H               0.00292142      0.90498325      5.57724543     -0.00322986     -1.37996289      1.00207361      0.43432813       1       0       0      -1      44      0.01559402     -0.52341066      0.35995675
 H               9.31239654      8.40599710      5.57639611      0.00069024      1.39300796      1.01185278      0.43172062       1      -1      -1      -1      44     -0.00140397      0.54640076      0.36644650
 O               9.31280902      3.10457571      0.13900106     -0.00470108     -0.01458081     -2.02432457      1.11567908       8      -1       0       0      48      0.01152770     -0.02948250     -0.76071403
 H               9.31075642      4.00834665      8.68030353      0.00234752     -1.38238183      1.00869662      0.43400326       1      -1       0      -1      44     -0.00940206     -0.52611532      0.36204058
 H               9.31175698      2.19616974      8.68129376      0.00106713      1.39793096      1.01469058      0.43111925       1      -1       0      -1      44     -0.00371432      0.54645825      0.39445328
 O               9.31262889      3.10419345      3.24202390      0.00206171      0.01429380     -1.99246365      1.10807902       8      -1       0       0      48     -0.00491597      0.01747648     -0.75385921
 H               0.00112178      4.01134754      2.47238027     -0.00144781     -1.38112328      1.00028579      0.43266350       1       0       0       0      44      0.00218901     -0.53836161      0.36732323
 H               9.31276906      2.20014064      2.47279750     -0.00023807      1.36760935      0.99126627      0.43552107       1      -1       0       0      44     -0.00277110      0.51574295      0.35042184
 O               9.31249287      3.10398648      6.34727864      0.00142841      0.00174061     -2.00582928      1.11139896       8      -1       0      -1      48     -0.03385535      0.00227834     -0.73715025
 H               0.00035365      4.01039180      5.57749297     -0.00111288     -1.38521028      1.00433528      0.43308127       1       0       0      -1      44     -0.00002809     -0.53411453      0.37321581
 H               0.00003130      2.19795429      5.57782598     -0.00090961      1.38250421      1.00261932      0.43360652       1       0       0      -1      44     -0.00132259      0.53271110      0.37067000
 O               9.31239546      6.20899270      0.13861169      0.00422517     -0.01252107     -2.00405512      1.11029540       8      -1      -1       0      48      0.00560177     -0.01527243     -0.75011940
 H               0.00220480      7.11345471      8.68172051     -0.00290305     -1.37640687      0.99962951      0.43456230       1       0      -1      -1      44      0.01550662     -0.52635106      0.36584130
 H               0.00036327      5.30125370      8.68232764     -0.00069302      1.38605424      1.00559880      0.43233919       1       0      -1      -1      44      0.00802666      0.54169594      0.38455468
 O               0.00028715      6.20902589      3.24290552     -0.00265846     -0.00556868     -2.01476929      1.11330779       8       0      -1       0      48      0.01520187     -0.00645789     -0.74767316
 H               9.31247242      7.11366222      2.47138759      0.00100719     -1.38406270      1.00650969      0.43339521       1      -1      -1       0      44     -0.00054378     -0.53289674      0.35080765
 H               9.31181564      5.30195600      2.47314921      0.00143511      1.38863851      1.00695463      0.43265370       1      -1      -1       0      44     -0.00099911      0.53683595      0.37703111
 O               0.00024548      6.20845494      6.34686887      0.00246184     -0.00304999     -1.98002649      1.10563197       8       0      -1      -1      48      0.00732146     -0.00646671     -0.71602097
 H               0.00076089      7.11418290      5.57867071     -0.00046872     -1.36724248      0.98848927      0.43494566       1       0      -1      -1      44     -0.00002066     -0.52078726      0.37255329
 H               0.00167922      5.30255906      5.57810423     -0.00166858      1.37093711      0.99163645      0.43431599       1       0      -1      -1      44      0.00716049      0.52498011      0.36627046
 O               3.10385399      0.00030530      0.13913278      0.00218700      0.00321571     -1.99828342      1.10982411       8       0       0       0      48      0.02193802      0.01764901     -0.74076625
 H               3.10420838      0.90533753      8.68069856     -0.00044034     -1.38056383      1.00383824      0.43315555       1       0       0      -1      44     -0.00291740     -0.53173310      0.35999861
 H               3.10512239      8.40630519      8.68418843     -0.00160169      1.37674844      0.99530199      0.43429390       1       0      -1      -1      44      0.00174505      0.52309121      0.39559770
 O               3.10413484      9.31229427      3.24306429      0.00039185      0.01041633     -2.02602559      1.11656503       8       0      -1       0      48     -0.02497429      0.02085257     -0.75033228
 H               3.10331217      0.90733263      2.47234184      0.00107293     -1.39888485      1.01612355      0.43133593       1       0       0       0      44     -0.00482796     -0.54727791      0.38205143
 H               3.10536304      8.40659464      2.47293805     -0.00150640      1.38984244      1.00969240      0.43345014       1       0      -1       0      44      0.00882846      0.53566472      0.36929536
 O               3.10409352      9.31264549      6.34709765      0.00248521      0.01298890     -2.01106818      1.11355749       8       0      -1      -1      48      0.01490063      0.02805021     -0.74504040
 H               3.10531707      0.90828375      5.57779763     -0.00152156     -1.39408130      1.00884635      0.43189358       1       0       0      -1      44      0.00297161     -0.54470346      0.38802398
 H               3.10488728      8.40745261      5.57734542     -0.00075662      1.37970477      1.00151325      0.43432842       1       0      -1      -1      44      0.00434009      0.52256047      0.35974352
 O               3.10460465      3.10401789      0.13902947     -0.00017761      0.00532978     -2.00115842      1.11076368       8       0       0       0      48     -0.00487733      0.01025596     -0.72036400
 H               3.10473707      4.01071976      8.68229200      0.00008397     -1.38549055      1.00405142      0.43294956       1       0       0      -1      44      0.00436808     -0.53823660      0.38496793
 H               3.10413763      2.19759184      8.68339490      0.00060068      1.37942628      0.99841568      0.43409491       1       0       0      -1      44      0.00008670      0.52808761      0.38806933
 O               3.10442555      3.10436549      3.24287655     -0.00101182      0.00488744     -2.02745546      1.11779660       8       0       0       0      48     -0.00211846      0.01605232     -0.77706909
 H               3.10439799      4.01200946      2.47232043      0.00028863     -1.39966423      1.01632985      0.43168555       1       0       0       0      44     -0.00323638     -0.54515029      0.37546669
 H               3.10364001      2.19697421      2.47359406      0.00109316      1.39385800      1.01061865      0.43285981       1       0       0       0      44     -0.00511653      0.53667902      0.38150945
 O               3.10467409      3.10382821      6.34752722      0.00105252      0.00069904     -2.01106479      1.11246498       8       0       0      -1      48      0.00931682     -0.00641386     -0.74875946
 H               3.10542563      4.00958529      5.57750536     -0.00061286     -1.38418333      1.00563773      0.43335029       1       0       0      -1      44      0.01152746     -0.53234846      0.37499412
 H               3.10457497      2.19782320      5.57688109      0.00002782      1.38464351      1.00473235      0.43302697       1       0       0      -1      44      0.00499925      0.52887816      0.37234083
 O               3.10391322      6.20848176      0.13897681     -0.00003125      0.01530194     -2.00861743      1.11169972       8       0      -1       0      48     -0.02433800      0.02666092     -0.75017156
 H               3.10472923      7.11499539      8.68012503     -0.00116218     -1.39054110      1.01150581      0.43160889       1       0      -1      -1      44      0.00079530     -0.54489403      0.36669811
 H               3.10289949      5.30335504      8.68309838      0.00108183      1.37626126      0.99655519      0.43500432       1       0      -1      -1      44     -0.00614719      0.51717152      0.37348368
 O               3.10393274      6.20857521      3.24299475     -0.00161048     -0.00473589     -2.00274113      1.11114348       8       0      -1       0      48     -0.00066246     -0.01817666     -0.73190870
 H               3.10438193      7.11399741      2.47339265     -0.00076180     -1.37890193      1.00027441      0.43408776       1       0      -1       0      44      0.00385289     -0.52571399      0.36967900
 H               3.10250995      5.30173372      2.47324749      0.00160785      1.38340028      1.00262439      0.43296547       1       0      -1       0      44     -0.00436936      0.53265507      0.37684514
 O               3.10428602      6.20840788      6.34758674     -0.00322833      0.01552241     -2.01755072      1.11421771       8       0      -1      -1      48     -0.01180536      0.03697830     -0.73117823
 H               3.10295118      7.11645236      5.57703043      0.00147784     -1.39710793      1.01472690      0.43120281       1       0      -1      -1      44     -0.01170556     -0.54978838      0.38331322
 H               3.10278240      5.30304933      5.57843961      0.00159092      1.38191640      1.00308199      0.43440230       1       0      -1      -1      44     -0.01429835      0.52512380      0.37488673
 O               6.20833666      9.31251021      0.13840210      0.00098208      0.01568759     -2.01468650      1.11371778       8      -1      -1       0      48     -0.01202978      0.02485610     -0.75150248
 H               6.20850905      0.90708690      8.67978406     -0.00045487     -1.39256765      1.01340513      0.43125507       1      -1       0      -1      44      0.00029947     -0.54481334      0.36793457
 H               6.20881465      8.40739568      8.68218764     -0.00058046      1.37907808      1.00091290      0.43473176       1      -1      -1      -1      44      0.00167815      0.52299341      0.36867321