 81
 energy=70.085536727816276 cutoff=4.00000000 nneightol=1.20000000 pbc="T T T" Lattice="9.31284498       0.00000000       0.00000000       0.00000000       9.31284498       0.00000000       0.00000000       0.00000000       9.31284498" Properties=species:S:1:pos:R:3:forces:R:3:energies:R:1:Z:I:1:map_shift:I:3:n_neighb:I:1:force:R:3
 O               0.00000000      0.00000000      0.11926200     -0.00000000     -0.00000000      8.11183591     -0.04479790       8       0       0       0      44      0.00000001      0.00000005      6.90460658
 H               0.00000000      0.76323900      8.83579798      0.00000000      5.21893682     -4.05591796      1.35042099       1       0       0      -1      41     -0.00000000      4.56971627     -3.45230327
 H               0.00000000      8.54960598      8.83579798      0.00000000     -5.21893682     -4.05591796      1.35042099       1       0      -1      -1      41     -0.00000000     -4.56971632     -3.45230331
 O               0.00000000      0.00000000      3.22354366     -0.00000000      0.00000000      8.11183591     -0.04479790       8       0       0       0      44      0.00000001      0.00000005      6.90460653
 H               0.00000000      0.76323900      2.62723466      0.00000000      5.21893682     -4.05591796      1.35042099       1       0       0       0      41     -0.00000000      4.56971623     -3.45230324
 H               0.00000000      8.54960598      2.62723466      0.00000000     -5.21893682     -4.05591796      1.35042099       1       0      -1       0      41     -0.00000000     -4.56971628     -3.45230329
 O               0.00000000      0.00000000      6.32782532     -0.00000000      0.00000000      8.11183591     -0.04479790       8       0       0      -1      44      0.00000001      0.00000005      6.90460653
 H               0.00000000      0.76323900      5.73151632      0.00000000      5.21893682     -4.05591796      1.35042099       1       0       0      -1      41     -0.00000000      4.56971623     -3.45230324
 H               0.00000000      8.54960598      5.73151632      0.00000000     -5.21893682     -4.05591796      1.35042099       1       0      -1      -1      41     -0.00000000     -4.56971627     -3.45230329
 O               0.00000000      3.10428166      0.11926200     -0.00000000      0.00000000      8.11183591     -0.04479790       8       0       0       0      44      0.00000001     -0.00000000      6.90460654
 H               0.00000000      3.86752066      8.83579798      0.00000000      5.21893682     -4.05591796      1.35042099       1       0       0      -1      41     -0.00000000      4.56971627     -3.45230327
 H               0.00000000      2.34104266      8.83579798      0.00000000     -5.21893682     -4.05591796      1.35042099       1       0       0      -1      41     -0.00000000     -4.56971627     -3.45230327
 O               0.00000000      3.10428166      3.22354366     -0.00000000     -0.00000000      8.11183591     -0.04479790       8       0       0       0      44      0.00000001     -0.00000000      6.90460648
 H               0.00000000      3.86752066      2.62723466      0.00000000      5.21893682     -4.05591796      1.35042099       1       0       0       0      41     -0.00000000      4.56971623     -3.45230324
 H               0.00000000      2.34104266      2.62723466      0.00000000     -5.21893682     -4.05591796      1.35042099       1       0       0       0      41     -0.00000000     -4.56971623     -3.45230324
 O               0.00000000      3.10428166      6.32782532     -0.00000000     -0.00000000      8.11183591     -0.04479790       8       0       0      -1      44      0.00000001     -0.00000000      6.90460648
 H               0.00000000      3.86752066      5.73151632      0.00000000      5.21893682     -4.05591796      1.35042099       1       0       0      -1      41     -0.00000000      4.56971623     -3.45230324
 H               0.00000000      2.34104266      5.73151632      0.00000000     -5.21893682     -4.05591796      1.35042099       1       0       0      -1      41     -0.00000000     -4.56971623     -3.45230324
 O               0.00000000      6.20856332      0.11926200     -0.00000000     -0.00000000      8.11183591     -0.04479790       8       0      -1       0      44      0.00000001     -0.00000000      6.90460654
 H               0.00000000      6.97180232      8.83579798      0.00000000      5.21893682     -4.05591796      1.35042099       1       0      -1      -1      41     -0.00000000      4.56971627     -3.45230327
 H               0.00000000      5.44532432      8.83579798      0.00000000     -5.21893682     -4.05591796      1.35042099       1       0      -1      -1      41     -0.00000000     -4.56971627     -3.45230327
 O               0.00000000      6.20856332      3.22354366     -0.00000000     -0.00000000      8.11183591     -0.04479790       8       0      -1       0      44      0.00000001     -0.00000000      6.90460648
 H               0.00000000      6.97180232      2.62723466      0.00000000      5.21893682     -4.05591796      1.35042099       1       0      -1       0      41     -0.00000000      4.56971623     -3.45230324
 H               0.00000000      5.44532432      2.62723466      0.00000000     -5.21893682     -4.05591796      1.35042099       1       0      -1       0      41     -0.00000000     -4.56971623     -3.45230324
 O               0.00000000      6.20856332      6.32782532     -0.00000000     -0.00000000      8.11183591     -0.04479790       8       0      -1      -1      44      0.00000001     -0.00000000      6.90460648
 H               0.00000000      6.97180232      5.73151632      0.00000000      5.21893682     -4.05591796      1.35042099       1       0      -1      -1      41     -0.00000000      4.56971622     -3.45230324
 H               0.00000000      5.44532432      5.73151632      0.00000000     -5.21893682     -4.05591796      1.35042099       1       0      -1      -1      41     -0.00000000     -4.56971623     -3.45230324
 O               3.10428166      0.00000000      0.11926200     -0.00000000      0.00000000      8.11183591     -0.04479790       8       0       0       0      44      0.00000000      0.00000005      6.90460659
 H               3.10428166      0.76323900      8.83579798      0.00000000      5.21893682     -4.05591796      1.35042099       1       0       0      -1      41      0.00000000      4.56971627     -3.45230327
 H               3.10428166      8.54960598      8.83579798      0.00000000     -5.21893682     -4.05591796      1.35042099       1       0      -1      -1      41     -0.00000000     -4.56971632     -3.45230331
 O               3.10428166      0.00000000      3.22354366     -0.00000000     -0.00000000      8.11183591     -0.04479790       8       0       0       0      44      0.00000000      0.00000005      6.90460653
 H               3.10428166      0.76323900      2.62723466     -0.00000000      5.21893682     -4.05591796      1.35042099       1       0       0       0      41      0.00000000      4.56971623     -3.45230324
 H               3.10428166      8.54960598      2.62723466     -0.00000000     -5.21893682     -4.05591796      1.35042099       1       0      -1       0      41      0.00000000     -4.56971627     -3.45230329
 O               3.10428166      0.00000000      6.32782532     -0.00000000     -0.00000000      8.11183591     -0.04479790       8       0       0      -1      44      0.00000000      0.00000005      6.90460653
 H               3.10428166      0.76323900      5.73151632      0.00000000      5.21893682     -4.05591796      1.35042099       1       0       0      -1      41      0.00000000      4.56971623     -3.45230324
 H               3.10428166      8.54960598      5.73151632      0.00000000     -5.21893682     -4.05591796      1.35042099       1       0      -1      -1      41     -0.00000000     -4.56971627     -3.45230329
 O               3.10428166      3.10428166      0.11926200     -0.00000000     -0.00000000      8.11183591     -0.04479790       8       0       0       0      44     -0.00000000     -0.00000000      6.90460654
 H               3.10428166      3.86752066      8.83579798     -0.00000000      5.21893682     -4.05591796      1.35042099       1       0       0      -1      41      0.00000000      4.56971627     -3.45230327
 H               3.10428166      2.34104266      8.83579798     -0.00000000     -5.21893682     -4.05591796      1.35042099       1       0       0      -1      41      0.00000000     -4.56971627     -3.45230327
 O               3.10428166      3.10428166      3.22354366     -0.00000000     -0.00000000      8.11183591     -0.04479790       8       0       0       0      44      0.00000000     -0.00000000      6.90460648
 H               3.10428166      3.86752066      2.62723466     -0.00000000      5.21893682     -4.05591796      1.35042099       1       0       0       0      41      0.00000000      4.56971623     -3.45230324
 H               3.10428166      2.34104266      2.62723466      0.00000000     -5.21893682     -4.05591796      1.35042099       1       0       0       0      41      0.00000000     -4.56971623     -3.45230324
 O               3.10428166      3.10428166      6.32782532      0.00000000     -0.00000000      8.11183591     -0.04479790       8       0       0      -1      44      0.00000000     -0.00000000      6.90460648
 H               3.10428166      3.86752066      5.73151632     -0.00000000      5.21893682     -4.05591796      1.35042099       1       0       0      -1      41     -0.00000000      4.56971623     -3.45230324
 H               3.10428166      2.34104266      5.73151632      0.00000000     -5.21893682     -4.05591796      1.35042099       1       0       0      -1      41      0.00000000     -4.56971623     -3.45230324
 O               3.10428166      6.20856332      0.11926200     -0.00000000     -0.00000000      8.11183591     -0.04479790       8       0      -1       0      44     -0.00000000     -0.00000000      6.90460654
 H               3.10428166      6.97180232      8.83579798      0.00000000      5.21893682     -4.05591796      1.35042099       1       0      -1      -1      41     -0.00000000      4.56971627     -3.45230327
 H               3.10428166      5.44532432      8.83579798      0.00000000     -5.21893682     -4.05591796      1.35042099       1       0      -1      -1      41     -0.00000000     -4.56971627     -3.45230327
 O               3.10428166      6.20856332      3.22354366      0.00000000     -0.00000000      8.11183591     -0.04479790       8       0      -1       0      44     -0.00000000     -0.00000000      6.90460648
 H               3.10428166      6.97180232      2.62723466      0.00000000      5.21893682     -4.05591796      1.35042099       1       0      -1       0      41     -0.00000000      4.56971622     -3.45230325
 H               3.10428166      5.44532432      2.62723466     -0.00000000     -5.21893682     -4.05591796      1.35042099       1       0      -1       0      41      0.00000000     -4.56971623     -3.45230324
 O               3.10428166      6.20856332      6.32782532      0.00000000     -0.00000000      8.11183591     -0.04479790       8       0      -1      -1      44      0.00000000     -0.00000000      6.90460648
 H               3.10428166      6.97180232      5.73151632     -0.00000000      5.21893682     -4.05591796      1.35042099       1       0      -1      -1      41      0.00000000      4.56971622     -3.45230324
 H               3.10428166      5.44532432      5.73151632      0.00000000     -5.21893682     -4.05591796      1.35042099       1       0      -1      -1      41      0.00000000     -4.56971623     -3.45230324
 O               6.20856332      0.00000000      0.11926200      0.00000000     -0.00000000      8.11183591     -0.04479790       8      -1       0       0      44     -0.00000001      0.00000005      6.90460658
 H               6.20856332      0.76323900      8.83579798     -0.00000000      5.21893682     -4.05591796      1.35042099       1      -1       0      -1      41      0.00000000      4.56971627     -3.45230327
 H               6.20856332      8.54960598      8.83579798     -0.00000000     -5.21893682     -4.05591796      1.35042099       1      -1      -1      -1      41      0.00000000     -4.56971632     -3.45230331
 O               6.20856332      0.00000000      3.22354366      0.00000000      0.00000000      8.11183591     -0.04479790       8      -1       0       0      44     -0.00000001      0.00000005      6.90460653
 H               6.20856332      0.76323900      2.62723466     -0.00000000      5.21893682     -4.05591796      1.35042099       1      -1       0       0      41      0.00000000      4.56971623     -3.45230324
 H               6.20856332      8.54960598      2.62723466     -0.00000000     -5.21893682     -4.05591796      1.35042099       1      -1      -1       0      41      0.00000000     -4.56971628     -3.45230329
 O               6.20856332      0.00000000      6.32782532      0.00000000     -0.00000000      8.11183591     -0.04479790       8      -1       0      -1      44     -0.00000001      0.00000005      6.90460653
 H               6.20856332      0.76323900      5.73151632     -0.00000000      5.21893682     -4.05591796      1.35042099       1      -1       0      -1      41      0.00000000      4.56971623     -3.45230324
 H               6.20856332      8.54960598      5.73151632     -0.00000000     -5.21893682     -4.05591796      1.35042099       1      -1      -1      -1      41      0.00000000     -4.56971627     -3.45230329
 O               6.20856332      3.10428166      0.11926200      0.00000000     -0.00000000      8.11183591     -0.04479790       8      -1       0       0      44     -0.00000001     -0.00000000      6.90460654
 H               6.20856332      3.86752066      8.83579798     -0.00000000      5.21893682     -4.05591796      1.35042099       1      -1       0      -1      41      0.00000000      4.56971627     -3.45230327
 H               6.20856332      2.34104266      8.83579798     -0.00000000     -5.21893682     -4.05591796      1.35042099       1      -1       0      -1      41      0.00000000     -4.56971627     -3.45230327
 O               6.20856332      3.10428166      3.22354366      0.00000000     -0.00000000      8.11183591     -0.04479790       8      -1       0       0      44     -0.00000001     -0.00000000      6.90460648
 H               6.20856332      3.86752066      2.62723466     -0.00000000      5.21893682     -4.05591796      1.35042099       1      -1       0       0      41      0.00000000      4.56971623     -3.45230324
 H               6.20856332      2.34104266      2.62723466      0.00000000     -5.21893682     -4.05591796      1.35042099       1      -1       0       0      41      0.00000000     -4.56971623     -3.45230324
 O               6.20856332      3.10428166      6.32782532      0.00000000     -0.00000000      8.11183591     -0.04479790       8      -1       0      -1      44     -0.00000001     -0.00000000      6.90460648
 H               6.20856332      3.86752066      5.73151632     -0.00000000      5.21893682     -4.05591796      1.35042099       1      -1       0      -1      41      0.00000000      4.56971623     -3.45230324
 H               6.20856332      2.34104266      5.73151632     -0.00000000     -5.21893682     -4.05591796      1.35042099       1      -1       0      -1      41      0.00000000     -4.56971623     -3.45230324
 O               6.20856332      6.20856332      0.11926200      0.00000000     -0.00000000      8.11183591     -0.04479790       8      -1      -1       0      44     -0.00000001     -0.00000000      6.90460654
 H               6.20856332      6.97180232      8.83579798     -0.00000000      5.21893682     -4.05591796      1.35042099       1      -1      -1      -1      41      0.00000000      4.56971627     -3.45230327
 H               6.20856332      5.44532432      8.83579798     -0.00000000     -5.21893682     -4.05591796      1.35042099       1      -1      -1      -1      41      0.00000000     -4.56971627     -3.45230327
 O               6.20856332      6.20856332      3.22354366      0.00000000     -0.00000000      8.11183591     -0.04479790       8      -1      -1       0      44     -0.00000001     -0.00000000      6.90460648
 H               6.20856332      6.97180232      2.62723466     -0.00000000      5.21893682     -4.05591796      1.35042099       1      -1      -1       0      41      0.00000000      4.56971623     -3.45230324
 H               6.20856332      5.44532432      2.62723466     -0.00000000     -5.21893682     -4.05591796      1.35042099       1      -1      -1       0      41      0.00000000     -4.56971623     -3.45230324
 O               6.20856332      6.20856332      6.32782532      0.00000000     -0.00000000      8.11183591     -0.04479790       8      -1      -1      -1      44     -0.00000001     -0.00000000      6.90460648
 H               6.20856332      6.97180232      5.73151632     -0.00000000      5.21893682     -4.05591796      1.35042099       1      -1      -1      -1      41      0.00000000      4.56971622     -3.45230324
 H               6.20856332      5.44532432      5.73151632     -0.00000000     -5.21893682     -4.05591796      1.35042099       1      -1      -1      -1      41      0.00000000     -4.56971623     -3.45230324
 81
 energy=53.070679997642486 cutoff=4.00000000 nneightol=1.20000000 pbc="T T T" Lattice="9.31284498       0.00000000       0.00000000       0.00000000       9.31284498       0.00000000       0.00000000       0.00000000       9.31284498" Properties=species:S:1:pos:R:3:forces:R:3:energies:R:1:Z:I:1:map_shift:I:3:n_neighb:I:1:force:R:3
 O               9.31254721      9.31255691      0.13890618     -0.00050839      0.02197547     -2.00170801      1.11050463       8      -1      -1       0      48     -0.00120432      0.04139529     -2.32178912
 H               0.00095973      0.90807789      8.68138633     -0.00140057     -1.38957110      1.00764197      0.43129081       1       0       0      -1      44      0.00166439     -1.22728284      1.17854790
 H               9.31095933      8.40905122      8.68266784      0.00151069      1.36969274      0.99413297      0.43595184       1      -1      -1      -1      44     -0.00211662      1.21995060      1.14835900
 O               0.00009991      0.00033675      3.24293382     -0.00141427     -0.00012982     -2.00499282      1.11191375       8       0       0       0      48     -0.00657614     -0.00270425     -2.32850512
 H               0.00049332      0.90657431      2.47314237     -0.00045617     -1.38586692      1.00566932      0.43315643       1       0       0       0      44      0.00654919     -1.23598284      1.16818022
 H               9.31134253      8.40510117      2.47543148      0.00194729      1.38579092      1.00049518      0.43345239       1      -1      -1       0      44     -0.00367741      1.22965152      1.16189377
 O               0.00016998      0.00022653      6.34724522      0.00285121     -0.01249096     -2.01441073      1.11291884       8       0       0      -1      48      0.00144512     -0.02158720     -2.33641459
 H               0.00292142      0.90498325      5.57724543     -0.00322986     -1.37996289      1.00207361      0.43432813       1       0       0      -1      44     -0.00337545     -1.21998114      1.15900617
 H               9.31239654      8.40599710      5.57639611      0.00069024      1.39300796      1.01185278      0.43172062       1      -1      -1      -1      44      0.00033327      1.23903202      1.17076018
 O               9.31280902      3.10457571      0.13900106     -0.00470108     -0.01458081     -2.02432457      1.11567908       8      -1       0       0      48     -0.00218013     -0.02752131     -2.34849045
 H               9.31075642      4.00834665      8.68030353      0.00234752     -1.38238183      1.00869662      0.43400326       1      -1       0      -1      44      0.00065289     -1.22320638      1.16530546
 H               9.31175698      2.19616974      8.68129376      0.00106713      1.39793096      1.01469058      0.43111925       1      -1       0      -1      44      0.00047752      1.23115747      1.18215564
 O               9.31262889      3.10419345      3.24202390      0.00206171      0.01429380     -1.99246365      1.10807902       8      -1       0       0      48      0.00303332      0.02504198     -2.31690095
 H               0.00112178      4.01134754      2.47238027     -0.00144781     -1.38112328      1.00028579      0.43266350       1       0       0       0      44     -0.00460588     -1.22634216      1.16675555
 H               9.31276906      2.20014064      2.47279750     -0.00023807      1.36760935      0.99126627      0.43552107       1      -1       0       0      44      0.00127191      1.21516808      1.15003389
 O               9.31249287      3.10398648      6.34727864      0.00142841      0.00174061     -2.00582928      1.11139896       8      -1       0      -1      48     -0.00385981      0.00631287     -2.33082002
 H               0.00035365      4.01039180      5.57749297     -0.00111288     -1.38521028      1.00433528      0.43308127       1       0       0      -1      44      0.00460563     -1.22702405      1.16894934
 H               0.00003130      2.19795429      5.57782598     -0.00090961      1.38250421      1.00261932      0.43360652       1       0       0      -1      44     -0.00554028      1.23059035      1.15941588
 O               9.31239546      6.20899270      0.13861169      0.00422517     -0.01252107     -2.00405512      1.11029540       8      -1      -1       0      48      0.00799598     -0.02162393     -2.33142829
 H               0.00220480      7.11345471      8.68172051     -0.00290305     -1.37640687      0.99962951      0.43456230       1       0      -1      -1      44     -0.00158210     -1.22917306      1.15695117
 H               0.00036327      5.30125370      8.68232764     -0.00069302      1.38605424      1.00559880      0.43233919       1       0      -1      -1      44      0.00411515      1.23729417      1.16660485
 O               0.00028715      6.20902589      3.24290552     -0.00265846     -0.00556868     -2.01476929      1.11330779       8       0      -1       0      48     -0.00169082     -0.01339515     -2.33291768
 H               9.31247242      7.11366222      2.47138759      0.00100719     -1.38406270      1.00650969      0.43339521       1      -1      -1       0      44     -0.00447557     -1.22399859      1.16310976
 H               9.31181564      5.30195600      2.47314921      0.00143511      1.38863851      1.00695463      0.43265370       1      -1      -1       0      44      0.00570565      1.22831281      1.16983631
 O               0.00024548      6.20845494      6.34686887      0.00246184     -0.00304999     -1.98002649      1.10563197       8       0      -1      -1      48      0.00244911     -0.00300355     -2.30507310
 H               0.00076089      7.11418290      5.57867071     -0.00046872     -1.36724248      0.98848927      0.43494566       1       0      -1      -1      44      0.00214464     -1.21262501      1.15752509
 H               0.00167922      5.30255906      5.57810423     -0.00166858      1.37093711      0.99163645      0.43431599       1       0      -1      -1      44      0.00613294      1.21718261      1.15534949
 O               3.10385399      0.00030530      0.13913278      0.00218700      0.00321571     -1.99828342      1.10982411       8       0       0       0      48      0.00694104      0.00582192     -2.32825467
 H               3.10420838      0.90533753      8.68069856     -0.00044034     -1.38056383      1.00383824      0.43315555       1       0       0      -1      44     -0.00485496     -1.22722893      1.16827121
 H               3.10512239      8.40630519      8.68418843     -0.00160169      1.37674844      0.99530199      0.43429390       1       0      -1      -1      44      0.00320847      1.21633678      1.16050847
 O               3.10413484      9.31229427      3.24306429      0.00039185      0.01041633     -2.02602559      1.11656503       8       0      -1       0      48     -0.00295419      0.02260325     -2.34478374
 H               3.10331217      0.90733263      2.47234184      0.00107293     -1.39888485      1.01612355      0.43133593       1       0       0       0      44     -0.00161168     -1.23973082      1.18079018
 H               3.10536304      8.40659464      2.47293805     -0.00150640      1.38984244      1.00969240      0.43345014       1       0      -1       0      44      0.00146320      1.23253887      1.16063853
 O               3.10409352      9.31264549      6.34709765      0.00248521      0.01298890     -2.01106818      1.11355749       8       0      -1      -1      48      0.00854800      0.02523941     -2.33062389
 H               3.10531707      0.90828375      5.57779763     -0.00152156     -1.39408130      1.00884635      0.43189358       1       0       0      -1      44     -0.00587271     -1.23809013      1.17951247
 H               3.10488728      8.40745261      5.57734542     -0.00075662      1.37970477      1.00151325      0.43432842       1       0      -1      -1      44      0.00100824      1.21391604      1.15519826
 O               3.10460465      3.10401789      0.13902947     -0.00017761      0.00532978     -2.00115842      1.11076368       8       0       0       0      48     -0.00176920      0.00954260     -2.32706435
 H               3.10473707      4.01071976      8.68229200      0.00008397     -1.38549055      1.00405142      0.43294956       1       0       0      -1      44      0.00357739     -1.23696258      1.17070573
 H               3.10413763      2.19759184      8.68339490      0.00060068      1.37942628      0.99841568      0.43409491       1       0       0      -1      44     -0.00074165      1.22229110      1.16087458
 O               3.10442555      3.10436549      3.24287655     -0.00101182      0.00488744     -2.02745546      1.11779660       8       0       0       0      48     -0.00118313      0.01110142     -2.34656364
 H               3.10439799      4.01200946      2.47232043      0.00028863     -1.39966423      1.01632985      0.43168555       1       0       0       0      44     -0.00368642     -1.23743680      1.17592136
 H               3.10364001      2.19697421      2.47359406      0.00109316      1.39385800      1.01061865      0.43285981       1       0       0       0      44      0.00189172      1.22946812      1.16865270
 O               3.10467409      3.10382821      6.34752722      0.00105252      0.00069904     -2.01106479      1.11246498       8       0       0      -1      48     -0.00003958      0.00473319     -2.33152668
 H               3.10542563      4.00958529      5.57750536     -0.00061286     -1.38418333      1.00563773      0.43335029       1       0       0      -1      44      0.00429369     -1.23940687      1.17065853
 H               3.10457497      2.19782320      5.57688109      0.00002782      1.38464351      1.00473235      0.43302697       1       0       0      -1      44      0.00001130      1.21645462      1.16386412
 O               3.10391322      6.20848176      0.13897681     -0.00003125      0.01530194     -2.00861743      1.11169972       8       0      -1       0      48     -0.00246606      0.02518265     -2.33393945
 H               3.10472923      7.11499539      8.68012503     -0.00116218     -1.39054110      1.01150581      0.43160889       1       0      -1      -1      44     -0.00675006     -1.23406749      1.17969110
 H               3.10289949      5.30335504      8.68309838      0.00108183      1.37626126      0.99655519      0.43500432       1       0      -1      -1      44     -0.00303027      1.21483112      1.15367520
 O               3.10393274      6.20857521      3.24299475     -0.00161048     -0.00473589     -2.00274113      1.11114348       8       0      -1       0      48     -0.00152072     -0.00883141     -2.32572052
 H               3.10438193      7.11399741      2.47339265     -0.00076180     -1.37890193      1.00027441      0.43408776       1       0      -1       0      44     -0.00135628     -1.22714934      1.16543369
 H               3.10250995      5.30173372      2.47324749      0.00160785      1.38340028      1.00262439      0.43296547       1       0      -1       0      44      0.00633664      1.22563847      1.16292285
 O               3.10428602      6.20840788      6.34758674     -0.00322833      0.01552241     -2.01755072      1.11421771       8       0      -1      -1      48     -0.00550357      0.03151541     -2.33513312
 H               3.10295118      7.11645236      5.57703043      0.00147784     -1.39710793      1.01472690      0.43120281       1       0      -1      -1      44     -0.00277512     -1.24609860      1.17981410
 H               3.10278240      5.30304933      5.57843961      0.00159092      1.38191640      1.00308199      0.43440230       1       0      -1      -1      44     -0.00464679      1.22441561      1.15729158
 O               6.20833666      9.31251021      0.13840210      0.00098208      0.01568759     -2.01468650      1.11371778       8      -1      -1       0      48     -0.00228660      0.03078861     -2.33761592
 H               6.20850905      0.90708690      8.67978406     -0.00045487     -1.39256765      1.01340513      0.43125507       1      -1       0      -1      44     -0.00410717     -1.23565637      1.17709132
 H               6.20881465      8.40739568      8.68218764     -0.00058046      1.37907808      1.00091290      0.43473176       1      -1      -1      -1      44      0.00476667      1.22777494      1.15881697