|===============================================================================
|
|  DFTB+ release 19.1
|
|  Copyright (C) 2006 - 2019  DFTB+ developers group
|
|===============================================================================
|
|  When publishing results obtained with DFTB+, please cite the following
|  reference:
|
|  * B. Aradi, B. Hourahine and T. Frauenheim,
|    DFTB+, a Sparse Matrix-Based Implementation of the DFTB Method,
|    J. Phys. Chem. A, 111 5678 (2007).  [doi: 10.1021/jp070186p]
|
|  You should also cite additional publications crediting the parametrization
|  data you use. Please consult the documentation of the SK-files for the
|  references.
|
|===============================================================================

Reading input file 'dftb_in.hsd'
Parser version: 7

--------------------------------------------------------------------------------
Reading SK-files:
Done.


Processed input in HSD format written to 'dftb_pin.hsd'

Starting initialization...
--------------------------------------------------------------------------------
OpenMP threads:              8
Chosen random seed:          7717046
Mode:                        Conjugate gradient relaxation
Self consistent charges:     No
Spin polarisation:           No
Nr. of up electrons:           256.000000
Nr. of down electrons:         256.000000
Periodic boundaries:         Yes
Electronic solver:           Relatively robust
Nr. of moved atoms:                     128
Max. nr. of geometry steps:            1000
Force tolerance:               0.100000E-03
Electronic temperature:        0.100000E-07 H      0.272114E-06 eV
Included shells:            Si:  s, p
                             F:  s, p
                             H:  s
K-points and weights:           1:  0.000000  0.000000  0.000000     1.000000

K-points in absolute space:     1:  0.000000  0.000000  0.000000

Extra options:
                             Mulliken analysis
Force type                   original

--------------------------------------------------------------------------------

***  Geometry step: 0


Total Energy:                     -199.6077583467 H        -5431.6035 eV
Extrapolated to 0:                -199.6077583467 H        -5431.6035 eV
Total Mermin free energy:         -199.6077583467 H        -5431.6035 eV
Force related energy:             -199.6077583467 H        -5431.6035 eV
Volume:                              0.269657E+05 au^3   0.399590E+04 A^3
Pressure:                            0.220560E-03 au     0.648909E+10 Pa
Maximal force component:             0.294381E+00

--------------------------------------------------------------------------------

***  Geometry step: 1


Total Energy:                     -200.1746566050 H        -5447.0295 eV
Extrapolated to 0:                -200.1746566050 H        -5447.0295 eV
Total Mermin free energy:         -200.1746566050 H        -5447.0295 eV
Force related energy:             -200.1746566050 H        -5447.0295 eV
Volume:                              0.269657E+05 au^3   0.399590E+04 A^3
Pressure:                            0.137672E-03 au     0.405044E+10 Pa
Maximal force component:             0.828995E-01

--------------------------------------------------------------------------------

***  Geometry step: 2


Total Energy:                     -200.2815760204 H        -5449.9390 eV
Extrapolated to 0:                -200.2815760204 H        -5449.9390 eV
Total Mermin free energy:         -200.2815760204 H        -5449.9390 eV
Force related energy:             -200.2815760204 H        -5449.9390 eV
Volume:                              0.269657E+05 au^3   0.399590E+04 A^3
Pressure:                            0.979355E-04 au     0.288136E+10 Pa
Maximal force component:             0.783962E-01

--------------------------------------------------------------------------------

***  Geometry step: 3


Total Energy:                     -200.2494974303 H        -5449.0661 eV
Extrapolated to 0:                -200.2494974303 H        -5449.0661 eV
Total Mermin free energy:         -200.2494974303 H        -5449.0661 eV
Force related energy:             -200.2494974303 H        -5449.0661 eV
Volume:                              0.269657E+05 au^3   0.399590E+04 A^3
Pressure:                            0.922955E-04 au     0.271543E+10 Pa
Maximal force component:             0.574068E-01

--------------------------------------------------------------------------------

***  Geometry step: 4


Total Energy:                     -200.2817666252 H        -5449.9442 eV
Extrapolated to 0:                -200.2817666252 H        -5449.9442 eV
Total Mermin free energy:         -200.2817666252 H        -5449.9442 eV
Force related energy:             -200.2817666252 H        -5449.9442 eV
Volume:                              0.269657E+05 au^3   0.399590E+04 A^3
Pressure:                            0.974273E-04 au     0.286641E+10 Pa
Maximal force component:             0.736939E-01

--------------------------------------------------------------------------------

***  Geometry step: 5


Total Energy:                     -199.9361374863 H        -5440.5391 eV
Extrapolated to 0:                -199.9361374863 H        -5440.5391 eV
Total Mermin free energy:         -199.9361374863 H        -5440.5391 eV
Force related energy:             -199.9361374863 H        -5440.5391 eV
Volume:                              0.269657E+05 au^3   0.399590E+04 A^3
Pressure:                            0.131178E-03 au     0.385938E+10 Pa
Maximal force component:             0.204615E+00

--------------------------------------------------------------------------------

***  Geometry step: 6


Total Energy:                     -200.3398913818 H        -5451.5258 eV
Extrapolated to 0:                -200.3398913818 H        -5451.5258 eV
Total Mermin free energy:         -200.3398913818 H        -5451.5258 eV
Force related energy:             -200.3398913818 H        -5451.5258 eV
Volume:                              0.269657E+05 au^3   0.399590E+04 A^3
Pressure:                            0.102869E-03 au     0.302652E+10 Pa
Maximal force component:             0.197704E-01

--------------------------------------------------------------------------------

***  Geometry step: 7


Total Energy:                     -200.3759501615 H        -5452.5070 eV
Extrapolated to 0:                -200.3759501615 H        -5452.5070 eV
Total Mermin free energy:         -200.3759501615 H        -5452.5070 eV
Force related energy:             -200.3759501615 H        -5452.5070 eV
Volume:                              0.269657E+05 au^3   0.399590E+04 A^3
Pressure:                            0.961998E-04 au     0.283030E+10 Pa
Maximal force component:             0.207165E-01

--------------------------------------------------------------------------------

***  Geometry step: 8


Total Energy:                     -200.3802526320 H        -5452.6241 eV
Extrapolated to 0:                -200.3802526320 H        -5452.6241 eV
Total Mermin free energy:         -200.3802526320 H        -5452.6241 eV
Force related energy:             -200.3802526320 H        -5452.6241 eV
Volume:                              0.269657E+05 au^3   0.399590E+04 A^3
Pressure:                            0.990063E-04 au     0.291287E+10 Pa
Maximal force component:             0.278971E-01

--------------------------------------------------------------------------------

***  Geometry step: 9


Total Energy:                     -200.3893456110 H        -5452.8715 eV
Extrapolated to 0:                -200.3893456110 H        -5452.8715 eV
Total Mermin free energy:         -200.3893456110 H        -5452.8715 eV
Force related energy:             -200.3893456110 H        -5452.8715 eV
Volume:                              0.269657E+05 au^3   0.399590E+04 A^3
Pressure:                            0.952826E-04 au     0.280331E+10 Pa
Maximal force component:             0.123851E-01

--------------------------------------------------------------------------------

***  Geometry step: 10


Total Energy:                     -200.3884963798 H        -5452.8484 eV
Extrapolated to 0:                -200.3884963798 H        -5452.8484 eV
Total Mermin free energy:         -200.3884963798 H        -5452.8484 eV
Force related energy:             -200.3884963798 H        -5452.8484 eV
Volume:                              0.269657E+05 au^3   0.399590E+04 A^3
Pressure:                            0.108614E-03 au     0.319553E+10 Pa
Maximal force component:             0.424614E-01

--------------------------------------------------------------------------------

***  Geometry step: 11


Total Energy:                     -200.3997329713 H        -5453.1542 eV
Extrapolated to 0:                -200.3997329713 H        -5453.1542 eV
Total Mermin free energy:         -200.3997329713 H        -5453.1542 eV
Force related energy:             -200.3997329713 H        -5453.1542 eV
Volume:                              0.269657E+05 au^3   0.399590E+04 A^3
Pressure:                            0.101170E-03 au     0.297653E+10 Pa
Maximal force component:             0.174788E-01

--------------------------------------------------------------------------------

***  Geometry step: 12


Total Energy:                     -200.4137374784 H        -5453.5353 eV
Extrapolated to 0:                -200.4137374784 H        -5453.5353 eV
Total Mermin free energy:         -200.4137374784 H        -5453.5353 eV
Force related energy:             -200.4137374784 H        -5453.5353 eV
Volume:                              0.269657E+05 au^3   0.399590E+04 A^3
Pressure:                            0.100446E-03 au     0.295522E+10 Pa
Maximal force component:             0.183415E-01

--------------------------------------------------------------------------------

***  Geometry step: 13


Total Energy:                     -200.4334248862 H        -5454.0710 eV
Extrapolated to 0:                -200.4334248862 H        -5454.0710 eV
Total Mermin free energy:         -200.4334248862 H        -5454.0710 eV
Force related energy:             -200.4334248862 H        -5454.0710 eV
Volume:                              0.269657E+05 au^3   0.399590E+04 A^3
Pressure:                            0.987175E-04 au     0.290437E+10 Pa
Maximal force component:             0.193248E-01

--------------------------------------------------------------------------------

***  Geometry step: 14


Total Energy:                     -200.4561770083 H        -5454.6901 eV
Extrapolated to 0:                -200.4561770083 H        -5454.6901 eV
Total Mermin free energy:         -200.4561770083 H        -5454.6901 eV
Force related energy:             -200.4561770083 H        -5454.6901 eV
Volume:                              0.269657E+05 au^3   0.399590E+04 A^3
Pressure:                            0.942407E-04 au     0.277266E+10 Pa
Maximal force component:             0.348898E-01

--------------------------------------------------------------------------------

***  Geometry step: 15


Total Energy:                     -200.4625953568 H        -5454.8648 eV
Extrapolated to 0:                -200.4625953568 H        -5454.8648 eV
Total Mermin free energy:         -200.4625953568 H        -5454.8648 eV
Force related energy:             -200.4625953568 H        -5454.8648 eV
Volume:                              0.269657E+05 au^3   0.399590E+04 A^3
Pressure:                            0.811937E-04 au     0.238880E+10 Pa
Maximal force component:             0.635948E-01

--------------------------------------------------------------------------------

***  Geometry step: 16


Total Energy:                     -200.4647311823 H        -5454.9229 eV
Extrapolated to 0:                -200.4647311823 H        -5454.9229 eV
Total Mermin free energy:         -200.4647311823 H        -5454.9229 eV
Force related energy:             -200.4647311823 H        -5454.9229 eV
Volume:                              0.269657E+05 au^3   0.399590E+04 A^3
Pressure:                            0.877478E-04 au     0.258163E+10 Pa
Maximal force component:             0.518602E-01

--------------------------------------------------------------------------------

***  Geometry step: 17


Total Energy:                     -200.5005775161 H        -5455.8983 eV
Extrapolated to 0:                -200.5005775161 H        -5455.8983 eV
Total Mermin free energy:         -200.5005775161 H        -5455.8983 eV
Force related energy:             -200.5005775161 H        -5455.8983 eV
Volume:                              0.269657E+05 au^3   0.399590E+04 A^3
Pressure:                            0.546005E-04 au     0.160640E+10 Pa
Maximal force component:             0.521472E-01

--------------------------------------------------------------------------------

***  Geometry step: 18


Total Energy:                     -200.4884655980 H        -5455.5687 eV
Extrapolated to 0:                -200.4884655980 H        -5455.5687 eV
Total Mermin free energy:         -200.4884655980 H        -5455.5687 eV
Force related energy:             -200.4884655980 H        -5455.5687 eV
Volume:                              0.269657E+05 au^3   0.399590E+04 A^3
Pressure:                            0.333144E-04 au     0.980142E+09 Pa
Maximal force component:             0.566173E-01

--------------------------------------------------------------------------------

***  Geometry step: 19


Total Energy:                     -200.5011160612 H        -5455.9130 eV
Extrapolated to 0:                -200.5011160612 H        -5455.9130 eV
Total Mermin free energy:         -200.5011160612 H        -5455.9130 eV
Force related energy:             -200.5011160612 H        -5455.9130 eV
Volume:                              0.269657E+05 au^3   0.399590E+04 A^3
Pressure:                            0.506059E-04 au     0.148888E+10 Pa
Maximal force component:             0.531359E-01

--------------------------------------------------------------------------------

***  Geometry step: 20


Total Energy:                     -200.5360350806 H        -5456.8632 eV
Extrapolated to 0:                -200.5360350806 H        -5456.8632 eV
Total Mermin free energy:         -200.5360350806 H        -5456.8632 eV
Force related energy:             -200.5360350806 H        -5456.8632 eV
Volume:                              0.269657E+05 au^3   0.399590E+04 A^3
Pressure:                            0.441820E-04 au     0.129988E+10 Pa
Maximal force component:             0.544080E-01

--------------------------------------------------------------------------------

***  Geometry step: 21


Total Energy:                     -200.5564052228 H        -5457.4175 eV
Extrapolated to 0:                -200.5564052228 H        -5457.4175 eV
Total Mermin free energy:         -200.5564052228 H        -5457.4175 eV
Force related energy:             -200.5564052228 H        -5457.4175 eV
Volume:                              0.269657E+05 au^3   0.399590E+04 A^3
Pressure:                            0.450325E-04 au     0.132490E+10 Pa
Maximal force component:             0.428245E-01

--------------------------------------------------------------------------------

***  Geometry step: 22


Total Energy:                     -200.6133642873 H        -5458.9674 eV
Extrapolated to 0:                -200.6133642873 H        -5458.9674 eV
Total Mermin free energy:         -200.6133642873 H        -5458.9674 eV
Force related energy:             -200.6133642873 H        -5458.9674 eV
Volume:                              0.269657E+05 au^3   0.399590E+04 A^3
Pressure:                            0.427630E-04 au     0.125813E+10 Pa
Maximal force component:             0.341220E-01

--------------------------------------------------------------------------------

***  Geometry step: 23


Total Energy:                     -200.5865529668 H        -5458.2378 eV
Extrapolated to 0:                -200.5865529668 H        -5458.2378 eV
Total Mermin free energy:         -200.5865529668 H        -5458.2378 eV
Force related energy:             -200.5865529668 H        -5458.2378 eV
Volume:                              0.269657E+05 au^3   0.399590E+04 A^3
Pressure:                            0.418600E-04 au     0.123156E+10 Pa
Maximal force component:             0.436917E-01

--------------------------------------------------------------------------------

***  Geometry step: 24


Total Energy:                     -200.6180534344 H        -5459.0950 eV
Extrapolated to 0:                -200.6180534344 H        -5459.0950 eV
Total Mermin free energy:         -200.6180534344 H        -5459.0950 eV
Force related energy:             -200.6180534344 H        -5459.0950 eV
Volume:                              0.269657E+05 au^3   0.399590E+04 A^3
Pressure:                            0.418205E-04 au     0.123040E+10 Pa
Maximal force component:             0.302578E-01

--------------------------------------------------------------------------------

***  Geometry step: 25


Total Energy:                     -200.6649772362 H        -5460.3719 eV
Extrapolated to 0:                -200.6649772362 H        -5460.3719 eV
Total Mermin free energy:         -200.6649772362 H        -5460.3719 eV
Force related energy:             -200.6649772362 H        -5460.3719 eV
Volume:                              0.269657E+05 au^3   0.399590E+04 A^3
Pressure:                            0.542179E-04 au     0.159515E+10 Pa
Maximal force component:             0.532328E-01

--------------------------------------------------------------------------------

***  Geometry step: 26


Total Energy:                     -200.6661010227 H        -5460.4024 eV
Extrapolated to 0:                -200.6661010227 H        -5460.4024 eV
Total Mermin free energy:         -200.6661010227 H        -5460.4024 eV
Force related energy:             -200.6661010227 H        -5460.4024 eV
Volume:                              0.269657E+05 au^3   0.399590E+04 A^3
Pressure:                            0.515653E-04 au     0.151710E+10 Pa
Maximal force component:             0.470146E-01

--------------------------------------------------------------------------------

***  Geometry step: 27


Total Energy:                     -200.7161583582 H        -5461.7646 eV
Extrapolated to 0:                -200.7161583582 H        -5461.7646 eV
Total Mermin free energy:         -200.7161583582 H        -5461.7646 eV
Force related energy:             -200.7161583582 H        -5461.7646 eV
Volume:                              0.269657E+05 au^3   0.399590E+04 A^3
Pressure:                            0.397228E-04 au     0.116868E+10 Pa
Maximal force component:             0.300776E-01

--------------------------------------------------------------------------------

***  Geometry step: 28


Total Energy:                     -200.6520753692 H        -5460.0208 eV
Extrapolated to 0:                -200.6520753692 H        -5460.0208 eV
Total Mermin free energy:         -200.6520753692 H        -5460.0208 eV
Force related energy:             -200.6520753692 H        -5460.0208 eV
Volume:                              0.269657E+05 au^3   0.399590E+04 A^3
Pressure:                            0.338976E-04 au     0.997302E+09 Pa
Maximal force component:             0.724100E-01

--------------------------------------------------------------------------------

***  Geometry step: 29


Total Energy:                     -200.7173432721 H        -5461.7968 eV
Extrapolated to 0:                -200.7173432721 H        -5461.7968 eV
Total Mermin free energy:         -200.7173432721 H        -5461.7968 eV
Force related energy:             -200.7173432721 H        -5461.7968 eV
Volume:                              0.269657E+05 au^3   0.399590E+04 A^3
Pressure:                            0.379993E-04 au     0.111798E+10 Pa
Maximal force component:             0.350108E-01

--------------------------------------------------------------------------------

***  Geometry step: 30


Total Energy:                     -200.7672806942 H        -5463.1557 eV
Extrapolated to 0:                -200.7672806942 H        -5463.1557 eV
Total Mermin free energy:         -200.7672806942 H        -5463.1557 eV
Force related energy:             -200.7672806942 H        -5463.1557 eV
Volume:                              0.269657E+05 au^3   0.399590E+04 A^3
Pressure:                            0.196843E-04 au     0.579131E+09 Pa
Maximal force component:             0.162217E-01

--------------------------------------------------------------------------------

***  Geometry step: 31


Total Energy:                     -200.7250417539 H        -5462.0063 eV
Extrapolated to 0:                -200.7250417539 H        -5462.0063 eV
Total Mermin free energy:         -200.7250417539 H        -5462.0063 eV
Force related energy:             -200.7250417539 H        -5462.0063 eV
Volume:                              0.269657E+05 au^3   0.399590E+04 A^3
Pressure:                            0.915565E-05 au     0.269368E+09 Pa
Maximal force component:             0.419817E-01

--------------------------------------------------------------------------------

***  Geometry step: 32


Total Energy:                     -200.7675261960 H        -5463.1624 eV
Extrapolated to 0:                -200.7675261960 H        -5463.1624 eV
Total Mermin free energy:         -200.7675261960 H        -5463.1624 eV
Force related energy:             -200.7675261960 H        -5463.1624 eV
Volume:                              0.269657E+05 au^3   0.399590E+04 A^3
Pressure:                            0.183820E-04 au     0.540817E+09 Pa
Maximal force component:             0.166557E-01

--------------------------------------------------------------------------------

***  Geometry step: 33


Total Energy:                     -200.7768534852 H        -5463.4162 eV
Extrapolated to 0:                -200.7768534852 H        -5463.4162 eV
Total Mermin free energy:         -200.7768534852 H        -5463.4162 eV
Force related energy:             -200.7768534852 H        -5463.4162 eV
Volume:                              0.269657E+05 au^3   0.399590E+04 A^3
Pressure:                            0.320142E-04 au     0.941891E+09 Pa
Maximal force component:             0.358434E-01

--------------------------------------------------------------------------------

***  Geometry step: 34


Total Energy:                     -200.7892054537 H        -5463.7523 eV
Extrapolated to 0:                -200.7892054537 H        -5463.7523 eV
Total Mermin free energy:         -200.7892054537 H        -5463.7523 eV
Force related energy:             -200.7892054537 H        -5463.7523 eV
Volume:                              0.269657E+05 au^3   0.399590E+04 A^3
Pressure:                            0.234410E-04 au     0.689657E+09 Pa
Maximal force component:             0.156718E-01

--------------------------------------------------------------------------------

***  Geometry step: 35


Total Energy:                     -200.8083485498 H        -5464.2732 eV
Extrapolated to 0:                -200.8083485498 H        -5464.2732 eV
Total Mermin free energy:         -200.8083485498 H        -5464.2732 eV
Force related energy:             -200.8083485498 H        -5464.2732 eV
Volume:                              0.269657E+05 au^3   0.399590E+04 A^3
Pressure:                            0.223690E-04 au     0.658118E+09 Pa
Maximal force component:             0.659636E-02

--------------------------------------------------------------------------------

***  Geometry step: 36


Total Energy:                     -200.7994677928 H        -5464.0315 eV
Extrapolated to 0:                -200.7994677928 H        -5464.0315 eV
Total Mermin free energy:         -200.7994677928 H        -5464.0315 eV
Force related energy:             -200.7994677928 H        -5464.0315 eV
Volume:                              0.269657E+05 au^3   0.399590E+04 A^3
Pressure:                            0.230335E-04 au     0.677670E+09 Pa
Maximal force component:             0.373188E-01

--------------------------------------------------------------------------------

***  Geometry step: 37


Total Energy:                     -200.8110407294 H        -5464.3464 eV
Extrapolated to 0:                -200.8110407294 H        -5464.3464 eV
Total Mermin free energy:         -200.8110407294 H        -5464.3464 eV
Force related energy:             -200.8110407294 H        -5464.3464 eV
Volume:                              0.269657E+05 au^3   0.399590E+04 A^3
Pressure:                            0.222633E-04 au     0.655010E+09 Pa
Maximal force component:             0.135664E-01

--------------------------------------------------------------------------------

***  Geometry step: 38


Total Energy:                     -200.8309192524 H        -5464.8874 eV
Extrapolated to 0:                -200.8309192524 H        -5464.8874 eV
Total Mermin free energy:         -200.8309192524 H        -5464.8874 eV
Force related energy:             -200.8309192524 H        -5464.8874 eV
Volume:                              0.269657E+05 au^3   0.399590E+04 A^3
Pressure:                            0.158301E-04 au     0.465737E+09 Pa
Maximal force component:             0.818338E-02

--------------------------------------------------------------------------------

***  Geometry step: 39


Total Energy:                     -200.8299149110 H        -5464.8600 eV
Extrapolated to 0:                -200.8299149110 H        -5464.8600 eV
Total Mermin free energy:         -200.8299149110 H        -5464.8600 eV
Force related energy:             -200.8299149110 H        -5464.8600 eV
Volume:                              0.269657E+05 au^3   0.399590E+04 A^3
Pressure:                            0.803670E-05 au     0.236448E+09 Pa
Maximal force component:             0.159829E-01

--------------------------------------------------------------------------------

***  Geometry step: 40


Total Energy:                     -200.8356153446 H        -5465.0152 eV
Extrapolated to 0:                -200.8356153446 H        -5465.0152 eV
Total Mermin free energy:         -200.8356153446 H        -5465.0152 eV
Force related energy:             -200.8356153446 H        -5465.0152 eV
Volume:                              0.269657E+05 au^3   0.399590E+04 A^3
Pressure:                            0.116868E-04 au     0.343837E+09 Pa
Maximal force component:             0.124196E-01

--------------------------------------------------------------------------------

***  Geometry step: 41


Total Energy:                     -200.7999867057 H        -5464.0456 eV
Extrapolated to 0:                -200.7999867057 H        -5464.0456 eV
Total Mermin free energy:         -200.7999867057 H        -5464.0456 eV
Force related energy:             -200.7999867057 H        -5464.0456 eV
Volume:                              0.269657E+05 au^3   0.399590E+04 A^3
Pressure:                            0.380202E-04 au     0.111859E+10 Pa
Maximal force component:             0.494927E-01

--------------------------------------------------------------------------------

***  Geometry step: 42


Total Energy:                     -200.8432308779 H        -5465.2224 eV
Extrapolated to 0:                -200.8432308779 H        -5465.2224 eV
Total Mermin free energy:         -200.8432308779 H        -5465.2224 eV
Force related energy:             -200.8432308779 H        -5465.2224 eV
Volume:                              0.269657E+05 au^3   0.399590E+04 A^3
Pressure:                            0.156927E-04 au     0.461695E+09 Pa
Maximal force component:             0.446945E-02

--------------------------------------------------------------------------------

***  Geometry step: 43


Total Energy:                     -200.8466946146 H        -5465.3166 eV
Extrapolated to 0:                -200.8466946146 H        -5465.3166 eV
Total Mermin free energy:         -200.8466946146 H        -5465.3166 eV
Force related energy:             -200.8466946146 H        -5465.3166 eV
Volume:                              0.269657E+05 au^3   0.399590E+04 A^3
Pressure:                            0.206556E-04 au     0.607709E+09 Pa
Maximal force component:             0.750482E-02

--------------------------------------------------------------------------------

***  Geometry step: 44


Total Energy:                     -200.8471351681 H        -5465.3286 eV
Extrapolated to 0:                -200.8471351681 H        -5465.3286 eV
Total Mermin free energy:         -200.8471351681 H        -5465.3286 eV
Force related energy:             -200.8471351681 H        -5465.3286 eV
Volume:                              0.269657E+05 au^3   0.399590E+04 A^3
Pressure:                            0.192493E-04 au     0.566334E+09 Pa
Maximal force component:             0.543592E-02

--------------------------------------------------------------------------------

***  Geometry step: 45


Total Energy:                     -200.8500508741 H        -5465.4080 eV
Extrapolated to 0:                -200.8500508741 H        -5465.4080 eV
Total Mermin free energy:         -200.8500508741 H        -5465.4080 eV
Force related energy:             -200.8500508741 H        -5465.4080 eV
Volume:                              0.269657E+05 au^3   0.399590E+04 A^3
Pressure:                            0.186484E-04 au     0.548655E+09 Pa
Maximal force component:             0.504232E-02

--------------------------------------------------------------------------------

***  Geometry step: 46


Total Energy:                     -200.8500509308 H        -5465.4080 eV
Extrapolated to 0:                -200.8500509308 H        -5465.4080 eV
Total Mermin free energy:         -200.8500509308 H        -5465.4080 eV
Force related energy:             -200.8500509308 H        -5465.4080 eV
Volume:                              0.269657E+05 au^3   0.399590E+04 A^3
Pressure:                            0.186492E-04 au     0.548678E+09 Pa
Maximal force component:             0.501609E-02

--------------------------------------------------------------------------------

***  Geometry step: 47


Total Energy:                     -200.8518570642 H        -5465.4571 eV
Extrapolated to 0:                -200.8518570642 H        -5465.4571 eV
Total Mermin free energy:         -200.8518570642 H        -5465.4571 eV
Force related energy:             -200.8518570642 H        -5465.4571 eV
Volume:                              0.269657E+05 au^3   0.399590E+04 A^3
Pressure:                            0.236275E-04 au     0.695145E+09 Pa
Maximal force component:             0.671793E-02

--------------------------------------------------------------------------------

***  Geometry step: 48


Total Energy:                     -200.8519264386 H        -5465.4590 eV
Extrapolated to 0:                -200.8519264386 H        -5465.4590 eV
Total Mermin free energy:         -200.8519264386 H        -5465.4590 eV
Force related energy:             -200.8519264386 H        -5465.4590 eV
Volume:                              0.269657E+05 au^3   0.399590E+04 A^3
Pressure:                            0.227495E-04 au     0.669312E+09 Pa
Maximal force component:             0.528812E-02

--------------------------------------------------------------------------------

***  Geometry step: 49


Total Energy:                     -200.8542630400 H        -5465.5226 eV
Extrapolated to 0:                -200.8542630400 H        -5465.5226 eV
Total Mermin free energy:         -200.8542630400 H        -5465.5226 eV
Force related energy:             -200.8542630400 H        -5465.5226 eV
Volume:                              0.269657E+05 au^3   0.399590E+04 A^3
Pressure:                            0.227353E-04 au     0.668896E+09 Pa
Maximal force component:             0.285386E-02

--------------------------------------------------------------------------------

***  Geometry step: 50


Total Energy:                     -200.8550260111 H        -5465.5433 eV
Extrapolated to 0:                -200.8550260111 H        -5465.5433 eV
Total Mermin free energy:         -200.8550260111 H        -5465.5433 eV
Force related energy:             -200.8550260111 H        -5465.5433 eV
Volume:                              0.269657E+05 au^3   0.399590E+04 A^3
Pressure:                            0.231234E-04 au     0.680313E+09 Pa
Maximal force component:             0.529859E-02

--------------------------------------------------------------------------------

***  Geometry step: 51


Total Energy:                     -200.8551727951 H        -5465.5473 eV
Extrapolated to 0:                -200.8551727951 H        -5465.5473 eV
Total Mermin free energy:         -200.8551727951 H        -5465.5473 eV
Force related energy:             -200.8551727951 H        -5465.5473 eV
Volume:                              0.269657E+05 au^3   0.399590E+04 A^3
Pressure:                            0.229641E-04 au     0.675627E+09 Pa
Maximal force component:             0.376865E-02

--------------------------------------------------------------------------------

***  Geometry step: 52


Total Energy:                     -200.8585783902 H        -5465.6400 eV
Extrapolated to 0:                -200.8585783902 H        -5465.6400 eV
Total Mermin free energy:         -200.8585783902 H        -5465.6400 eV
Force related energy:             -200.8585783902 H        -5465.6400 eV
Volume:                              0.269657E+05 au^3   0.399590E+04 A^3
Pressure:                            0.245552E-04 au     0.722438E+09 Pa
Maximal force component:             0.432445E-02

--------------------------------------------------------------------------------

***  Geometry step: 53


Total Energy:                     -200.8537728231 H        -5465.5092 eV
Extrapolated to 0:                -200.8537728231 H        -5465.5092 eV
Total Mermin free energy:         -200.8537728231 H        -5465.5092 eV
Force related energy:             -200.8537728231 H        -5465.5092 eV
Volume:                              0.269657E+05 au^3   0.399590E+04 A^3
Pressure:                            0.286914E-04 au     0.844131E+09 Pa
Maximal force component:             0.133316E-01

--------------------------------------------------------------------------------

***  Geometry step: 54


Total Energy:                     -200.8586894222 H        -5465.6430 eV
Extrapolated to 0:                -200.8586894222 H        -5465.6430 eV
Total Mermin free energy:         -200.8586894222 H        -5465.6430 eV
Force related energy:             -200.8586894222 H        -5465.6430 eV
Volume:                              0.269657E+05 au^3   0.399590E+04 A^3
Pressure:                            0.249755E-04 au     0.734806E+09 Pa
Maximal force component:             0.470778E-02

--------------------------------------------------------------------------------

***  Geometry step: 55


Total Energy:                     -200.8603773742 H        -5465.6890 eV
Extrapolated to 0:                -200.8603773742 H        -5465.6890 eV
Total Mermin free energy:         -200.8603773742 H        -5465.6890 eV
Force related energy:             -200.8603773742 H        -5465.6890 eV
Volume:                              0.269657E+05 au^3   0.399590E+04 A^3
Pressure:                            0.299103E-04 au     0.879991E+09 Pa
Maximal force component:             0.836452E-02

--------------------------------------------------------------------------------

***  Geometry step: 56


Total Energy:                     -200.8609411192 H        -5465.7043 eV
Extrapolated to 0:                -200.8609411192 H        -5465.7043 eV
Total Mermin free energy:         -200.8609411192 H        -5465.7043 eV
Force related energy:             -200.8609411192 H        -5465.7043 eV
Volume:                              0.269657E+05 au^3   0.399590E+04 A^3
Pressure:                            0.280625E-04 au     0.825627E+09 Pa
Maximal force component:             0.465608E-02

--------------------------------------------------------------------------------

***  Geometry step: 57


Total Energy:                     -200.8626855839 H        -5465.7518 eV
Extrapolated to 0:                -200.8626855839 H        -5465.7518 eV
Total Mermin free energy:         -200.8626855839 H        -5465.7518 eV
Force related energy:             -200.8626855839 H        -5465.7518 eV
Volume:                              0.269657E+05 au^3   0.399590E+04 A^3
Pressure:                            0.242737E-04 au     0.714155E+09 Pa
Maximal force component:             0.452596E-02

--------------------------------------------------------------------------------

***  Geometry step: 58


Total Energy:                     -200.8627154701 H        -5465.7526 eV
Extrapolated to 0:                -200.8627154701 H        -5465.7526 eV
Total Mermin free energy:         -200.8627154701 H        -5465.7526 eV
Force related energy:             -200.8627154701 H        -5465.7526 eV
Volume:                              0.269657E+05 au^3   0.399590E+04 A^3
Pressure:                            0.246595E-04 au     0.725506E+09 Pa
Maximal force component:             0.363428E-02

--------------------------------------------------------------------------------

***  Geometry step: 59


Total Energy:                     -200.8645082241 H        -5465.8014 eV
Extrapolated to 0:                -200.8645082241 H        -5465.8014 eV
Total Mermin free energy:         -200.8645082241 H        -5465.8014 eV
Force related energy:             -200.8645082241 H        -5465.8014 eV
Volume:                              0.269657E+05 au^3   0.399590E+04 A^3
Pressure:                            0.258898E-04 au     0.761704E+09 Pa
Maximal force component:             0.134332E-02

--------------------------------------------------------------------------------

***  Geometry step: 60


Total Energy:                     -200.8630213263 H        -5465.7609 eV
Extrapolated to 0:                -200.8630213263 H        -5465.7609 eV
Total Mermin free energy:         -200.8630213263 H        -5465.7609 eV
Force related energy:             -200.8630213263 H        -5465.7609 eV
Volume:                              0.269657E+05 au^3   0.399590E+04 A^3
Pressure:                            0.280669E-04 au     0.825757E+09 Pa
Maximal force component:             0.459163E-02

--------------------------------------------------------------------------------

***  Geometry step: 61


Total Energy:                     -200.8646504796 H        -5465.8052 eV
Extrapolated to 0:                -200.8646504796 H        -5465.8052 eV
Total Mermin free energy:         -200.8646504796 H        -5465.8052 eV
Force related energy:             -200.8646504796 H        -5465.8052 eV
Volume:                              0.269657E+05 au^3   0.399590E+04 A^3
Pressure:                            0.263583E-04 au     0.775487E+09 Pa
Maximal force component:             0.182523E-02

--------------------------------------------------------------------------------

***  Geometry step: 62


Total Energy:                     -200.8633109525 H        -5465.7688 eV
Extrapolated to 0:                -200.8633109525 H        -5465.7688 eV
Total Mermin free energy:         -200.8633109525 H        -5465.7688 eV
Force related energy:             -200.8633109525 H        -5465.7688 eV
Volume:                              0.269657E+05 au^3   0.399590E+04 A^3
Pressure:                            0.323719E-04 au     0.952414E+09 Pa
Maximal force component:             0.106004E-01

--------------------------------------------------------------------------------

***  Geometry step: 63


Total Energy:                     -200.8653134140 H        -5465.8233 eV
Extrapolated to 0:                -200.8653134140 H        -5465.8233 eV
Total Mermin free energy:         -200.8653134140 H        -5465.8233 eV
Force related energy:             -200.8653134140 H        -5465.8233 eV
Volume:                              0.269657E+05 au^3   0.399590E+04 A^3
Pressure:                            0.284087E-04 au     0.835813E+09 Pa
Maximal force component:             0.302905E-02

--------------------------------------------------------------------------------

***  Geometry step: 64


Total Energy:                     -200.8658640583 H        -5465.8383 eV
Extrapolated to 0:                -200.8658640583 H        -5465.8383 eV
Total Mermin free energy:         -200.8658640583 H        -5465.8383 eV
Force related energy:             -200.8658640583 H        -5465.8383 eV
Volume:                              0.269657E+05 au^3   0.399590E+04 A^3
Pressure:                            0.275335E-04 au     0.810064E+09 Pa
Maximal force component:             0.189511E-02

--------------------------------------------------------------------------------

***  Geometry step: 65


Total Energy:                     -200.8658657659 H        -5465.8383 eV
Extrapolated to 0:                -200.8658657659 H        -5465.8383 eV
Total Mermin free energy:         -200.8658657659 H        -5465.8383 eV
Force related energy:             -200.8658657659 H        -5465.8383 eV
Volume:                              0.269657E+05 au^3   0.399590E+04 A^3
Pressure:                            0.275757E-04 au     0.811305E+09 Pa
Maximal force component:             0.179096E-02

--------------------------------------------------------------------------------

***  Geometry step: 66


Total Energy:                     -200.8665135015 H        -5465.8559 eV
Extrapolated to 0:                -200.8665135015 H        -5465.8559 eV
Total Mermin free energy:         -200.8665135015 H        -5465.8559 eV
Force related energy:             -200.8665135015 H        -5465.8559 eV
Volume:                              0.269657E+05 au^3   0.399590E+04 A^3
Pressure:                            0.287250E-04 au     0.845119E+09 Pa
Maximal force component:             0.147591E-02

--------------------------------------------------------------------------------

***  Geometry step: 67


Total Energy:                     -200.8666056558 H        -5465.8584 eV
Extrapolated to 0:                -200.8666056558 H        -5465.8584 eV
Total Mermin free energy:         -200.8666056558 H        -5465.8584 eV
Force related energy:             -200.8666056558 H        -5465.8584 eV
Volume:                              0.269657E+05 au^3   0.399590E+04 A^3
Pressure:                            0.306533E-04 au     0.901852E+09 Pa
Maximal force component:             0.429591E-02

--------------------------------------------------------------------------------

***  Geometry step: 68


Total Energy:                     -200.8667125632 H        -5465.8613 eV
Extrapolated to 0:                -200.8667125632 H        -5465.8613 eV
Total Mermin free energy:         -200.8667125632 H        -5465.8613 eV
Force related energy:             -200.8667125632 H        -5465.8613 eV
Volume:                              0.269657E+05 au^3   0.399590E+04 A^3
Pressure:                            0.298230E-04 au     0.877422E+09 Pa
Maximal force component:             0.274964E-02

--------------------------------------------------------------------------------

***  Geometry step: 69


Total Energy:                     -200.8671442333 H        -5465.8731 eV
Extrapolated to 0:                -200.8671442333 H        -5465.8731 eV
Total Mermin free energy:         -200.8671442333 H        -5465.8731 eV
Force related energy:             -200.8671442333 H        -5465.8731 eV
Volume:                              0.269657E+05 au^3   0.399590E+04 A^3
Pressure:                            0.295249E-04 au     0.868653E+09 Pa
Maximal force component:             0.370830E-02

--------------------------------------------------------------------------------

***  Geometry step: 70


Total Energy:                     -200.8672480358 H        -5465.8759 eV
Extrapolated to 0:                -200.8672480358 H        -5465.8759 eV
Total Mermin free energy:         -200.8672480358 H        -5465.8759 eV
Force related energy:             -200.8672480358 H        -5465.8759 eV
Volume:                              0.269657E+05 au^3   0.399590E+04 A^3
Pressure:                            0.295620E-04 au     0.869745E+09 Pa
Maximal force component:             0.210935E-02

--------------------------------------------------------------------------------

***  Geometry step: 71


Total Energy:                     -200.8678256974 H        -5465.8916 eV
Extrapolated to 0:                -200.8678256974 H        -5465.8916 eV
Total Mermin free energy:         -200.8678256974 H        -5465.8916 eV
Force related energy:             -200.8678256974 H        -5465.8916 eV
Volume:                              0.269657E+05 au^3   0.399590E+04 A^3
Pressure:                            0.297426E-04 au     0.875056E+09 Pa
Maximal force component:             0.150701E-02

--------------------------------------------------------------------------------

***  Geometry step: 72


Total Energy:                     -200.8671572903 H        -5465.8735 eV
Extrapolated to 0:                -200.8671572903 H        -5465.8735 eV
Total Mermin free energy:         -200.8671572903 H        -5465.8735 eV
Force related energy:             -200.8671572903 H        -5465.8735 eV
Volume:                              0.269657E+05 au^3   0.399590E+04 A^3
Pressure:                            0.301366E-04 au     0.886648E+09 Pa
Maximal force component:             0.452062E-02

--------------------------------------------------------------------------------

***  Geometry step: 73


Total Energy:                     -200.8678512407 H        -5465.8923 eV
Extrapolated to 0:                -200.8678512407 H        -5465.8923 eV
Total Mermin free energy:         -200.8678512407 H        -5465.8923 eV
Force related energy:             -200.8678512407 H        -5465.8923 eV
Volume:                              0.269657E+05 au^3   0.399590E+04 A^3
Pressure:                            0.297977E-04 au     0.876679E+09 Pa
Maximal force component:             0.186567E-02

--------------------------------------------------------------------------------

***  Geometry step: 74


Total Energy:                     -200.8680046713 H        -5465.8965 eV
Extrapolated to 0:                -200.8680046713 H        -5465.8965 eV
Total Mermin free energy:         -200.8680046713 H        -5465.8965 eV
Force related energy:             -200.8680046713 H        -5465.8965 eV
Volume:                              0.269657E+05 au^3   0.399590E+04 A^3
Pressure:                            0.340886E-04 au     0.100292E+10 Pa
Maximal force component:             0.444886E-02

--------------------------------------------------------------------------------

***  Geometry step: 75


Total Energy:                     -200.8681995931 H        -5465.9018 eV
Extrapolated to 0:                -200.8681995931 H        -5465.9018 eV
Total Mermin free energy:         -200.8681995931 H        -5465.9018 eV
Force related energy:             -200.8681995931 H        -5465.9018 eV
Volume:                              0.269657E+05 au^3   0.399590E+04 A^3
Pressure:                            0.321849E-04 au     0.946913E+09 Pa
Maximal force component:             0.231158E-02

--------------------------------------------------------------------------------

***  Geometry step: 76


Total Energy:                     -200.8686828356 H        -5465.9150 eV
Extrapolated to 0:                -200.8686828356 H        -5465.9150 eV
Total Mermin free energy:         -200.8686828356 H        -5465.9150 eV
Force related energy:             -200.8686828356 H        -5465.9150 eV
Volume:                              0.269657E+05 au^3   0.399590E+04 A^3
Pressure:                            0.326555E-04 au     0.960758E+09 Pa
Maximal force component:             0.918446E-03

--------------------------------------------------------------------------------

***  Geometry step: 77


Total Energy:                     -200.8687674447 H        -5465.9173 eV
Extrapolated to 0:                -200.8687674447 H        -5465.9173 eV
Total Mermin free energy:         -200.8687674447 H        -5465.9173 eV
Force related energy:             -200.8687674447 H        -5465.9173 eV
Volume:                              0.269657E+05 au^3   0.399590E+04 A^3
Pressure:                            0.334403E-04 au     0.983846E+09 Pa
Maximal force component:             0.245421E-02

--------------------------------------------------------------------------------

***  Geometry step: 78


Total Energy:                     -200.8688368667 H        -5465.9192 eV
Extrapolated to 0:                -200.8688368667 H        -5465.9192 eV
Total Mermin free energy:         -200.8688368667 H        -5465.9192 eV
Force related energy:             -200.8688368667 H        -5465.9192 eV
Volume:                              0.269657E+05 au^3   0.399590E+04 A^3
Pressure:                            0.331218E-04 au     0.974475E+09 Pa
Maximal force component:             0.170789E-02

--------------------------------------------------------------------------------

***  Geometry step: 79


Total Energy:                     -200.8692699348 H        -5465.9309 eV
Extrapolated to 0:                -200.8692699348 H        -5465.9309 eV
Total Mermin free energy:         -200.8692699348 H        -5465.9309 eV
Force related energy:             -200.8692699348 H        -5465.9309 eV
Volume:                              0.269657E+05 au^3   0.399590E+04 A^3
Pressure:                            0.345356E-04 au     0.101607E+10 Pa
Maximal force component:             0.172583E-02

--------------------------------------------------------------------------------

***  Geometry step: 80


Total Energy:                     -200.8692855963 H        -5465.9314 eV
Extrapolated to 0:                -200.8692855963 H        -5465.9314 eV
Total Mermin free energy:         -200.8692855963 H        -5465.9314 eV
Force related energy:             -200.8692855963 H        -5465.9314 eV
Volume:                              0.269657E+05 au^3   0.399590E+04 A^3
Pressure:                            0.343086E-04 au     0.100939E+10 Pa
Maximal force component:             0.119144E-02

--------------------------------------------------------------------------------

***  Geometry step: 81


Total Energy:                     -200.8696815338 H        -5465.9421 eV
Extrapolated to 0:                -200.8696815338 H        -5465.9421 eV
Total Mermin free energy:         -200.8696815338 H        -5465.9421 eV
Force related energy:             -200.8696815338 H        -5465.9421 eV
Volume:                              0.269657E+05 au^3   0.399590E+04 A^3
Pressure:                            0.344785E-04 au     0.101439E+10 Pa
Maximal force component:             0.129766E-02

--------------------------------------------------------------------------------

***  Geometry step: 82


Total Energy:                     -200.8696830747 H        -5465.9422 eV
Extrapolated to 0:                -200.8696830747 H        -5465.9422 eV
Total Mermin free energy:         -200.8696830747 H        -5465.9422 eV
Force related energy:             -200.8696830747 H        -5465.9422 eV
Volume:                              0.269657E+05 au^3   0.399590E+04 A^3
Pressure:                            0.344682E-04 au     0.101409E+10 Pa
Maximal force component:             0.119465E-02

--------------------------------------------------------------------------------

***  Geometry step: 83


Total Energy:                     -200.8694623690 H        -5465.9362 eV
Extrapolated to 0:                -200.8694623690 H        -5465.9362 eV
Total Mermin free energy:         -200.8694623690 H        -5465.9362 eV
Force related energy:             -200.8694623690 H        -5465.9362 eV
Volume:                              0.269657E+05 au^3   0.399590E+04 A^3
Pressure:                            0.374355E-04 au     0.110139E+10 Pa
Maximal force component:             0.446554E-02

--------------------------------------------------------------------------------

***  Geometry step: 84


Total Energy:                     -200.8698278153 H        -5465.9461 eV
Extrapolated to 0:                -200.8698278153 H        -5465.9461 eV
Total Mermin free energy:         -200.8698278153 H        -5465.9461 eV
Force related energy:             -200.8698278153 H        -5465.9461 eV
Volume:                              0.269657E+05 au^3   0.399590E+04 A^3
Pressure:                            0.355627E-04 au     0.104629E+10 Pa
Maximal force component:             0.100274E-02

--------------------------------------------------------------------------------

***  Geometry step: 85


Total Energy:                     -200.8700136894 H        -5465.9512 eV
Extrapolated to 0:                -200.8700136894 H        -5465.9512 eV
Total Mermin free energy:         -200.8700136894 H        -5465.9512 eV
Force related energy:             -200.8700136894 H        -5465.9512 eV
Volume:                              0.269657E+05 au^3   0.399590E+04 A^3
Pressure:                            0.353305E-04 au     0.103946E+10 Pa
Maximal force component:             0.735211E-03

--------------------------------------------------------------------------------

***  Geometry step: 86


Total Energy:                     -200.8699642879 H        -5465.9498 eV
Extrapolated to 0:                -200.8699642879 H        -5465.9498 eV
Total Mermin free energy:         -200.8699642879 H        -5465.9498 eV
Force related energy:             -200.8699642879 H        -5465.9498 eV
Volume:                              0.269657E+05 au^3   0.399590E+04 A^3
Pressure:                            0.349597E-04 au     0.102855E+10 Pa
Maximal force component:             0.110222E-02

--------------------------------------------------------------------------------

***  Geometry step: 87


Total Energy:                     -200.8700458595 H        -5465.9521 eV
Extrapolated to 0:                -200.8700458595 H        -5465.9521 eV
Total Mermin free energy:         -200.8700458595 H        -5465.9521 eV
Force related energy:             -200.8700458595 H        -5465.9521 eV
Volume:                              0.269657E+05 au^3   0.399590E+04 A^3
Pressure:                            0.351866E-04 au     0.103523E+10 Pa
Maximal force component:             0.729083E-03

--------------------------------------------------------------------------------

***  Geometry step: 88


Total Energy:                     -200.8701303457 H        -5465.9544 eV
Extrapolated to 0:                -200.8701303457 H        -5465.9544 eV
Total Mermin free energy:         -200.8701303457 H        -5465.9544 eV
Force related energy:             -200.8701303457 H        -5465.9544 eV
Volume:                              0.269657E+05 au^3   0.399590E+04 A^3
Pressure:                            0.358901E-04 au     0.105592E+10 Pa
Maximal force component:             0.131532E-02

--------------------------------------------------------------------------------

***  Geometry step: 89


Total Energy:                     -200.8701546024 H        -5465.9550 eV
Extrapolated to 0:                -200.8701546024 H        -5465.9550 eV
Total Mermin free energy:         -200.8701546024 H        -5465.9550 eV
Force related energy:             -200.8701546024 H        -5465.9550 eV
Volume:                              0.269657E+05 au^3   0.399590E+04 A^3
Pressure:                            0.356627E-04 au     0.104923E+10 Pa
Maximal force component:             0.782077E-03

--------------------------------------------------------------------------------

***  Geometry step: 90


Total Energy:                     -200.8701432417 H        -5465.9547 eV
Extrapolated to 0:                -200.8701432417 H        -5465.9547 eV
Total Mermin free energy:         -200.8701432417 H        -5465.9547 eV
Force related energy:             -200.8701432417 H        -5465.9547 eV
Volume:                              0.269657E+05 au^3   0.399590E+04 A^3
Pressure:                            0.345866E-04 au     0.101757E+10 Pa
Maximal force component:             0.194571E-02

--------------------------------------------------------------------------------

***  Geometry step: 91


Total Energy:                     -200.8702008817 H        -5465.9563 eV
Extrapolated to 0:                -200.8702008817 H        -5465.9563 eV
Total Mermin free energy:         -200.8702008817 H        -5465.9563 eV
Force related energy:             -200.8702008817 H        -5465.9563 eV
Volume:                              0.269657E+05 au^3   0.399590E+04 A^3
Pressure:                            0.351430E-04 au     0.103394E+10 Pa
Maximal force component:             0.769271E-03

--------------------------------------------------------------------------------

***  Geometry step: 92


Total Energy:                     -200.8702682892 H        -5465.9581 eV
Extrapolated to 0:                -200.8702682892 H        -5465.9581 eV
Total Mermin free energy:         -200.8702682892 H        -5465.9581 eV
Force related energy:             -200.8702682892 H        -5465.9581 eV
Volume:                              0.269657E+05 au^3   0.399590E+04 A^3
Pressure:                            0.351932E-04 au     0.103542E+10 Pa
Maximal force component:             0.530996E-03

--------------------------------------------------------------------------------

***  Geometry step: 93


Total Energy:                     -200.8703082723 H        -5465.9592 eV
Extrapolated to 0:                -200.8703082723 H        -5465.9592 eV
Total Mermin free energy:         -200.8703082723 H        -5465.9592 eV
Force related energy:             -200.8703082723 H        -5465.9592 eV
Volume:                              0.269657E+05 au^3   0.399590E+04 A^3
Pressure:                            0.352735E-04 au     0.103778E+10 Pa
Maximal force component:             0.796017E-03

--------------------------------------------------------------------------------

***  Geometry step: 94


Total Energy:                     -200.8703083200 H        -5465.9592 eV
Extrapolated to 0:                -200.8703083200 H        -5465.9592 eV
Total Mermin free energy:         -200.8703083200 H        -5465.9592 eV
Force related energy:             -200.8703083200 H        -5465.9592 eV
Volume:                              0.269657E+05 au^3   0.399590E+04 A^3
Pressure:                            0.352708E-04 au     0.103770E+10 Pa
Maximal force component:             0.778587E-03

--------------------------------------------------------------------------------

***  Geometry step: 95


Total Energy:                     -200.8703370102 H        -5465.9600 eV
Extrapolated to 0:                -200.8703370102 H        -5465.9600 eV
Total Mermin free energy:         -200.8703370102 H        -5465.9600 eV
Force related energy:             -200.8703370102 H        -5465.9600 eV
Volume:                              0.269657E+05 au^3   0.399590E+04 A^3
Pressure:                            0.343817E-04 au     0.101154E+10 Pa
Maximal force component:             0.112364E-02

--------------------------------------------------------------------------------

***  Geometry step: 96


Total Energy:                     -200.8703683370 H        -5465.9608 eV
Extrapolated to 0:                -200.8703683370 H        -5465.9608 eV
Total Mermin free energy:         -200.8703683370 H        -5465.9608 eV
Force related energy:             -200.8703683370 H        -5465.9608 eV
Volume:                              0.269657E+05 au^3   0.399590E+04 A^3
Pressure:                            0.347525E-04 au     0.102245E+10 Pa
Maximal force component:             0.616605E-03

--------------------------------------------------------------------------------

***  Geometry step: 97


Total Energy:                     -200.8703976439 H        -5465.9616 eV
Extrapolated to 0:                -200.8703976439 H        -5465.9616 eV
Total Mermin free energy:         -200.8703976439 H        -5465.9616 eV
Force related energy:             -200.8703976439 H        -5465.9616 eV
Volume:                              0.269657E+05 au^3   0.399590E+04 A^3
Pressure:                            0.351411E-04 au     0.103389E+10 Pa
Maximal force component:             0.835850E-03

--------------------------------------------------------------------------------

***  Geometry step: 98


Total Energy:                     -200.8704050187 H        -5465.9618 eV
Extrapolated to 0:                -200.8704050187 H        -5465.9618 eV
Total Mermin free energy:         -200.8704050187 H        -5465.9618 eV
Force related energy:             -200.8704050187 H        -5465.9618 eV
Volume:                              0.269657E+05 au^3   0.399590E+04 A^3
Pressure:                            0.350188E-04 au     0.103029E+10 Pa
Maximal force component:             0.482966E-03

--------------------------------------------------------------------------------

***  Geometry step: 99


Total Energy:                     -200.8704339035 H        -5465.9626 eV
Extrapolated to 0:                -200.8704339035 H        -5465.9626 eV
Total Mermin free energy:         -200.8704339035 H        -5465.9626 eV
Force related energy:             -200.8704339035 H        -5465.9626 eV
Volume:                              0.269657E+05 au^3   0.399590E+04 A^3
Pressure:                            0.345145E-04 au     0.101545E+10 Pa
Maximal force component:             0.509780E-03

--------------------------------------------------------------------------------

***  Geometry step: 100


Total Energy:                     -200.8704344560 H        -5465.9626 eV
Extrapolated to 0:                -200.8704344560 H        -5465.9626 eV
Total Mermin free energy:         -200.8704344560 H        -5465.9626 eV
Force related energy:             -200.8704344560 H        -5465.9626 eV
Volume:                              0.269657E+05 au^3   0.399590E+04 A^3
Pressure:                            0.345749E-04 au     0.101723E+10 Pa
Maximal force component:             0.391074E-03

--------------------------------------------------------------------------------

***  Geometry step: 101


Total Energy:                     -200.8704701205 H        -5465.9636 eV
Extrapolated to 0:                -200.8704701205 H        -5465.9636 eV
Total Mermin free energy:         -200.8704701205 H        -5465.9636 eV
Force related energy:             -200.8704701205 H        -5465.9636 eV
Volume:                              0.269657E+05 au^3   0.399590E+04 A^3
Pressure:                            0.344208E-04 au     0.101269E+10 Pa
Maximal force component:             0.339229E-03

--------------------------------------------------------------------------------

***  Geometry step: 102


Total Energy:                     -200.8704618775 H        -5465.9634 eV
Extrapolated to 0:                -200.8704618775 H        -5465.9634 eV
Total Mermin free energy:         -200.8704618775 H        -5465.9634 eV
Force related energy:             -200.8704618775 H        -5465.9634 eV
Volume:                              0.269657E+05 au^3   0.399590E+04 A^3
Pressure:                            0.341736E-04 au     0.100542E+10 Pa
Maximal force component:             0.800069E-03

--------------------------------------------------------------------------------

***  Geometry step: 103


Total Energy:                     -200.8704765962 H        -5465.9638 eV
Extrapolated to 0:                -200.8704765962 H        -5465.9638 eV
Total Mermin free energy:         -200.8704765962 H        -5465.9638 eV
Force related energy:             -200.8704765962 H        -5465.9638 eV
Volume:                              0.269657E+05 au^3   0.399590E+04 A^3
Pressure:                            0.343218E-04 au     0.100978E+10 Pa
Maximal force component:             0.466817E-03

--------------------------------------------------------------------------------

***  Geometry step: 104


Total Energy:                     -200.8705270537 H        -5465.9651 eV
Extrapolated to 0:                -200.8705270537 H        -5465.9651 eV
Total Mermin free energy:         -200.8705270537 H        -5465.9651 eV
Force related energy:             -200.8705270537 H        -5465.9651 eV
Volume:                              0.269657E+05 au^3   0.399590E+04 A^3
Pressure:                            0.338953E-04 au     0.997234E+09 Pa
Maximal force component:             0.435656E-03

--------------------------------------------------------------------------------

***  Geometry step: 105


Total Energy:                     -200.8704879822 H        -5465.9641 eV
Extrapolated to 0:                -200.8704879822 H        -5465.9641 eV
Total Mermin free energy:         -200.8704879822 H        -5465.9641 eV
Force related energy:             -200.8704879822 H        -5465.9641 eV
Volume:                              0.269657E+05 au^3   0.399590E+04 A^3
Pressure:                            0.332135E-04 au     0.977174E+09 Pa
Maximal force component:             0.124211E-02

--------------------------------------------------------------------------------

***  Geometry step: 106


Total Energy:                     -200.8705312462 H        -5465.9653 eV
Extrapolated to 0:                -200.8705312462 H        -5465.9653 eV
Total Mermin free energy:         -200.8705312462 H        -5465.9653 eV
Force related energy:             -200.8705312462 H        -5465.9653 eV
Volume:                              0.269657E+05 au^3   0.399590E+04 A^3
Pressure:                            0.337321E-04 au     0.992433E+09 Pa
Maximal force component:             0.562620E-03

--------------------------------------------------------------------------------

***  Geometry step: 107


Total Energy:                     -200.8705812680 H        -5465.9666 eV
Extrapolated to 0:                -200.8705812680 H        -5465.9666 eV
Total Mermin free energy:         -200.8705812680 H        -5465.9666 eV
Force related energy:             -200.8705812680 H        -5465.9666 eV
Volume:                              0.269657E+05 au^3   0.399590E+04 A^3
Pressure:                            0.336488E-04 au     0.989982E+09 Pa
Maximal force component:             0.563989E-03

--------------------------------------------------------------------------------

***  Geometry step: 108


Total Energy:                     -200.8705813764 H        -5465.9666 eV
Extrapolated to 0:                -200.8705813764 H        -5465.9666 eV
Total Mermin free energy:         -200.8705813764 H        -5465.9666 eV
Force related energy:             -200.8705813764 H        -5465.9666 eV
Volume:                              0.269657E+05 au^3   0.399590E+04 A^3
Pressure:                            0.336525E-04 au     0.990089E+09 Pa
Maximal force component:             0.513389E-03

--------------------------------------------------------------------------------

***  Geometry step: 109


Total Energy:                     -200.8706371759 H        -5465.9681 eV
Extrapolated to 0:                -200.8706371759 H        -5465.9681 eV
Total Mermin free energy:         -200.8706371759 H        -5465.9681 eV
Force related energy:             -200.8706371759 H        -5465.9681 eV
Volume:                              0.269657E+05 au^3   0.399590E+04 A^3
Pressure:                            0.327203E-04 au     0.962664E+09 Pa
Maximal force component:             0.735224E-03

--------------------------------------------------------------------------------

***  Geometry step: 110


Total Energy:                     -200.8705568209 H        -5465.9660 eV
Extrapolated to 0:                -200.8705568209 H        -5465.9660 eV
Total Mermin free energy:         -200.8705568209 H        -5465.9660 eV
Force related energy:             -200.8705568209 H        -5465.9660 eV
Volume:                              0.269657E+05 au^3   0.399590E+04 A^3
Pressure:                            0.312242E-04 au     0.918646E+09 Pa
Maximal force component:             0.257260E-02

--------------------------------------------------------------------------------

***  Geometry step: 111


Total Energy:                     -200.8706385851 H        -5465.9682 eV
Extrapolated to 0:                -200.8706385851 H        -5465.9682 eV
Total Mermin free energy:         -200.8706385851 H        -5465.9682 eV
Force related energy:             -200.8706385851 H        -5465.9682 eV
Volume:                              0.269657E+05 au^3   0.399590E+04 A^3
Pressure:                            0.325443E-04 au     0.957487E+09 Pa
Maximal force component:             0.955249E-03

--------------------------------------------------------------------------------

***  Geometry step: 112


Total Energy:                     -200.8707408154 H        -5465.9710 eV
Extrapolated to 0:                -200.8707408154 H        -5465.9710 eV
Total Mermin free energy:         -200.8707408154 H        -5465.9710 eV
Force related energy:             -200.8707408154 H        -5465.9710 eV
Volume:                              0.269657E+05 au^3   0.399590E+04 A^3
Pressure:                            0.321509E-04 au     0.945912E+09 Pa
Maximal force component:             0.657197E-03

--------------------------------------------------------------------------------

***  Geometry step: 113


Total Energy:                     -200.8708652230 H        -5465.9743 eV
Extrapolated to 0:                -200.8708652230 H        -5465.9743 eV
Total Mermin free energy:         -200.8708652230 H        -5465.9743 eV
Force related energy:             -200.8708652230 H        -5465.9743 eV
Volume:                              0.269657E+05 au^3   0.399590E+04 A^3
Pressure:                            0.314911E-04 au     0.926499E+09 Pa
Maximal force component:             0.678578E-03

--------------------------------------------------------------------------------

***  Geometry step: 114


Total Energy:                     -200.8709584059 H        -5465.9769 eV
Extrapolated to 0:                -200.8709584059 H        -5465.9769 eV
Total Mermin free energy:         -200.8709584059 H        -5465.9769 eV
Force related energy:             -200.8709584059 H        -5465.9769 eV
Volume:                              0.269657E+05 au^3   0.399590E+04 A^3
Pressure:                            0.303593E-04 au     0.893201E+09 Pa
Maximal force component:             0.130548E-02

--------------------------------------------------------------------------------

***  Geometry step: 115


Total Energy:                     -200.8708150449 H        -5465.9730 eV
Extrapolated to 0:                -200.8708150449 H        -5465.9730 eV
Total Mermin free energy:         -200.8708150449 H        -5465.9730 eV
Force related energy:             -200.8708150449 H        -5465.9730 eV
Volume:                              0.269657E+05 au^3   0.399590E+04 A^3
Pressure:                            0.283632E-04 au     0.834473E+09 Pa
Maximal force component:             0.231446E-02

--------------------------------------------------------------------------------

***  Geometry step: 116


Total Energy:                     -200.8709607692 H        -5465.9769 eV
Extrapolated to 0:                -200.8709607692 H        -5465.9769 eV
Total Mermin free energy:         -200.8709607692 H        -5465.9769 eV
Force related energy:             -200.8709607692 H        -5465.9769 eV
Volume:                              0.269657E+05 au^3   0.399590E+04 A^3
Pressure:                            0.301500E-04 au     0.887043E+09 Pa
Maximal force component:             0.141661E-02

--------------------------------------------------------------------------------

***  Geometry step: 117


Total Energy:                     -200.8711240663 H        -5465.9814 eV
Extrapolated to 0:                -200.8711240663 H        -5465.9814 eV
Total Mermin free energy:         -200.8711240663 H        -5465.9814 eV
Force related energy:             -200.8711240663 H        -5465.9814 eV
Volume:                              0.269657E+05 au^3   0.399590E+04 A^3
Pressure:                            0.259364E-04 au     0.763076E+09 Pa
Maximal force component:             0.227270E-02

--------------------------------------------------------------------------------

***  Geometry step: 118


Total Energy:                     -200.8711779255 H        -5465.9829 eV
Extrapolated to 0:                -200.8711779255 H        -5465.9829 eV
Total Mermin free energy:         -200.8711779255 H        -5465.9829 eV
Force related energy:             -200.8711779255 H        -5465.9829 eV
Volume:                              0.269657E+05 au^3   0.399590E+04 A^3
Pressure:                            0.274271E-04 au     0.806932E+09 Pa
Maximal force component:             0.136967E-02

--------------------------------------------------------------------------------

***  Geometry step: 119


Total Energy:                     -200.8713291574 H        -5465.9870 eV
Extrapolated to 0:                -200.8713291574 H        -5465.9870 eV
Total Mermin free energy:         -200.8713291574 H        -5465.9870 eV
Force related energy:             -200.8713291574 H        -5465.9870 eV
Volume:                              0.269657E+05 au^3   0.399590E+04 A^3
Pressure:                            0.267299E-04 au     0.786421E+09 Pa
Maximal force component:             0.159913E-02

--------------------------------------------------------------------------------

***  Geometry step: 120


Total Energy:                     -200.8713499082 H        -5465.9875 eV
Extrapolated to 0:                -200.8713499082 H        -5465.9875 eV
Total Mermin free energy:         -200.8713499082 H        -5465.9875 eV
Force related energy:             -200.8713499082 H        -5465.9875 eV
Volume:                              0.269657E+05 au^3   0.399590E+04 A^3
Pressure:                            0.269222E-04 au     0.792079E+09 Pa
Maximal force component:             0.133989E-02

--------------------------------------------------------------------------------

***  Geometry step: 121


Total Energy:                     -200.8716292591 H        -5465.9951 eV
Extrapolated to 0:                -200.8716292591 H        -5465.9951 eV
Total Mermin free energy:         -200.8716292591 H        -5465.9951 eV
Force related energy:             -200.8716292591 H        -5465.9951 eV
Volume:                              0.269657E+05 au^3   0.399590E+04 A^3
Pressure:                            0.254887E-04 au     0.749902E+09 Pa
Maximal force component:             0.119623E-02

--------------------------------------------------------------------------------

***  Geometry step: 122


Total Energy:                     -200.8718671263 H        -5466.0016 eV
Extrapolated to 0:                -200.8718671263 H        -5466.0016 eV
Total Mermin free energy:         -200.8718671263 H        -5466.0016 eV
Force related energy:             -200.8718671263 H        -5466.0016 eV
Volume:                              0.269657E+05 au^3   0.399590E+04 A^3
Pressure:                            0.229630E-04 au     0.675595E+09 Pa
Maximal force component:             0.181977E-02

--------------------------------------------------------------------------------

***  Geometry step: 123


Total Energy:                     -200.8716530721 H        -5465.9958 eV
Extrapolated to 0:                -200.8716530721 H        -5465.9958 eV
Total Mermin free energy:         -200.8716530721 H        -5465.9958 eV
Force related energy:             -200.8716530721 H        -5465.9958 eV
Volume:                              0.269657E+05 au^3   0.399590E+04 A^3
Pressure:                            0.183504E-04 au     0.539887E+09 Pa
Maximal force component:             0.316278E-02

--------------------------------------------------------------------------------

***  Geometry step: 124


Total Energy:                     -200.8718879463 H        -5466.0022 eV
Extrapolated to 0:                -200.8718879463 H        -5466.0022 eV
Total Mermin free energy:         -200.8718879463 H        -5466.0022 eV
Force related energy:             -200.8718879463 H        -5466.0022 eV
Volume:                              0.269657E+05 au^3   0.399590E+04 A^3
Pressure:                            0.220490E-04 au     0.648704E+09 Pa
Maximal force component:             0.210181E-02

--------------------------------------------------------------------------------

***  Geometry step: 125


Total Energy:                     -200.8722032754 H        -5466.0108 eV
Extrapolated to 0:                -200.8722032754 H        -5466.0108 eV
Total Mermin free energy:         -200.8722032754 H        -5466.0108 eV
Force related energy:             -200.8722032754 H        -5466.0108 eV
Volume:                              0.269657E+05 au^3   0.399590E+04 A^3
Pressure:                            0.182273E-04 au     0.536264E+09 Pa
Maximal force component:             0.249944E-02

--------------------------------------------------------------------------------

***  Geometry step: 126


Total Energy:                     -200.8723010989 H        -5466.0134 eV
Extrapolated to 0:                -200.8723010989 H        -5466.0134 eV
Total Mermin free energy:         -200.8723010989 H        -5466.0134 eV
Force related energy:             -200.8723010989 H        -5466.0134 eV
Volume:                              0.269657E+05 au^3   0.399590E+04 A^3
Pressure:                            0.197753E-04 au     0.581809E+09 Pa
Maximal force component:             0.189714E-02

--------------------------------------------------------------------------------

***  Geometry step: 127


Total Energy:                     -200.8728244598 H        -5466.0277 eV
Extrapolated to 0:                -200.8728244598 H        -5466.0277 eV
Total Mermin free energy:         -200.8728244598 H        -5466.0277 eV
Force related energy:             -200.8728244598 H        -5466.0277 eV
Volume:                              0.269657E+05 au^3   0.399590E+04 A^3
Pressure:                            0.151170E-04 au     0.444756E+09 Pa
Maximal force component:             0.228152E-02

--------------------------------------------------------------------------------

***  Geometry step: 128


Total Energy:                     -200.8728245601 H        -5466.0277 eV
Extrapolated to 0:                -200.8728245601 H        -5466.0277 eV
Total Mermin free energy:         -200.8728245601 H        -5466.0277 eV
Force related energy:             -200.8728245601 H        -5466.0277 eV
Volume:                              0.269657E+05 au^3   0.399590E+04 A^3
Pressure:                            0.151863E-04 au     0.446795E+09 Pa
Maximal force component:             0.227491E-02

--------------------------------------------------------------------------------

***  Geometry step: 129


Total Energy:                     -200.8733726421 H        -5466.0426 eV
Extrapolated to 0:                -200.8733726421 H        -5466.0426 eV
Total Mermin free energy:         -200.8733726421 H        -5466.0426 eV
Force related energy:             -200.8733726421 H        -5466.0426 eV
Volume:                              0.269657E+05 au^3   0.399590E+04 A^3
Pressure:                            0.131510E-04 au     0.386917E+09 Pa
Maximal force component:             0.212246E-02

--------------------------------------------------------------------------------

***  Geometry step: 130


Total Energy:                     -200.8720301423 H        -5466.0060 eV
Extrapolated to 0:                -200.8720301423 H        -5466.0060 eV
Total Mermin free energy:         -200.8720301423 H        -5466.0060 eV
[...]

--------------------------------------------------------------------------------

***  Geometry step: 273


Total Energy:                     -200.8855846165 H        -5466.3749 eV
Extrapolated to 0:                -200.8855846165 H        -5466.3749 eV
Total Mermin free energy:         -200.8855846165 H        -5466.3749 eV
Force related energy:             -200.8855846165 H        -5466.3749 eV
Volume:                              0.269657E+05 au^3   0.399590E+04 A^3
Pressure:                            0.288251E-04 au     0.848064E+09 Pa
Maximal force component:             0.378426E-03

--------------------------------------------------------------------------------

***  Geometry step: 274


Total Energy:                     -200.8855850128 H        -5466.3749 eV
Extrapolated to 0:                -200.8855850128 H        -5466.3749 eV
Total Mermin free energy:         -200.8855850128 H        -5466.3749 eV
Force related energy:             -200.8855850128 H        -5466.3749 eV
Volume:                              0.269657E+05 au^3   0.399590E+04 A^3
Pressure:                            0.288186E-04 au     0.847873E+09 Pa
Maximal force component:             0.252613E-03

--------------------------------------------------------------------------------

***  Geometry step: 275


Total Energy:                     -200.8855881635 H        -5466.3750 eV
Extrapolated to 0:                -200.8855881635 H        -5466.3750 eV
Total Mermin free energy:         -200.8855881635 H        -5466.3750 eV
Force related energy:             -200.8855881635 H        -5466.3750 eV
Volume:                              0.269657E+05 au^3   0.399590E+04 A^3
Pressure:                            0.288046E-04 au     0.847460E+09 Pa
Maximal force component:             0.304736E-03

--------------------------------------------------------------------------------

***  Geometry step: 276


Total Energy:                     -200.8855882280 H        -5466.3750 eV
Extrapolated to 0:                -200.8855882280 H        -5466.3750 eV
Total Mermin free energy:         -200.8855882280 H        -5466.3750 eV
Force related energy:             -200.8855882280 H        -5466.3750 eV
Volume:                              0.269657E+05 au^3   0.399590E+04 A^3
Pressure:                            0.288063E-04 au     0.847510E+09 Pa
Maximal force component:             0.259994E-03

--------------------------------------------------------------------------------

***  Geometry step: 277


Total Energy:                     -200.8855923871 H        -5466.3751 eV
Extrapolated to 0:                -200.8855923871 H        -5466.3751 eV
Total Mermin free energy:         -200.8855923871 H        -5466.3751 eV
Force related energy:             -200.8855923871 H        -5466.3751 eV
Volume:                              0.269657E+05 au^3   0.399590E+04 A^3
Pressure:                            0.288738E-04 au     0.849497E+09 Pa
Maximal force component:             0.163255E-03

--------------------------------------------------------------------------------

***  Geometry step: 278


Total Energy:                     -200.8855907384 H        -5466.3751 eV
Extrapolated to 0:                -200.8855907384 H        -5466.3751 eV
Total Mermin free energy:         -200.8855907384 H        -5466.3751 eV
Force related energy:             -200.8855907384 H        -5466.3751 eV
Volume:                              0.269657E+05 au^3   0.399590E+04 A^3
Pressure:                            0.289844E-04 au     0.852751E+09 Pa
Maximal force component:             0.624433E-03

--------------------------------------------------------------------------------

***  Geometry step: 279


Total Energy:                     -200.8855929906 H        -5466.3751 eV
Extrapolated to 0:                -200.8855929906 H        -5466.3751 eV
Total Mermin free energy:         -200.8855929906 H        -5466.3751 eV
Force related energy:             -200.8855929906 H        -5466.3751 eV
Volume:                              0.269657E+05 au^3   0.399590E+04 A^3
Pressure:                            0.289113E-04 au     0.850600E+09 Pa
Maximal force component:             0.317125E-03

--------------------------------------------------------------------------------

***  Geometry step: 280


Total Energy:                     -200.8855986616 H        -5466.3753 eV
Extrapolated to 0:                -200.8855986616 H        -5466.3753 eV
Total Mermin free energy:         -200.8855986616 H        -5466.3753 eV
Force related energy:             -200.8855986616 H        -5466.3753 eV
Volume:                              0.269657E+05 au^3   0.399590E+04 A^3
Pressure:                            0.288543E-04 au     0.848923E+09 Pa
Maximal force component:             0.122020E-03

--------------------------------------------------------------------------------

***  Geometry step: 281


Total Energy:                     -200.8855926816 H        -5466.3751 eV
Extrapolated to 0:                -200.8855926816 H        -5466.3751 eV
Total Mermin free energy:         -200.8855926816 H        -5466.3751 eV
Force related energy:             -200.8855926816 H        -5466.3751 eV
Volume:                              0.269657E+05 au^3   0.399590E+04 A^3
Pressure:                            0.287630E-04 au     0.846236E+09 Pa
Maximal force component:             0.655569E-03

--------------------------------------------------------------------------------

***  Geometry step: 282


Total Energy:                     -200.8855989674 H        -5466.3753 eV
Extrapolated to 0:                -200.8855989674 H        -5466.3753 eV
Total Mermin free energy:         -200.8855989674 H        -5466.3753 eV
Force related energy:             -200.8855989674 H        -5466.3753 eV
Volume:                              0.269657E+05 au^3   0.399590E+04 A^3
Pressure:                            0.288377E-04 au     0.848435E+09 Pa
Maximal force component:             0.192801E-03

--------------------------------------------------------------------------------

***  Geometry step: 283


Total Energy:                     -200.8855993639 H        -5466.3753 eV
Extrapolated to 0:                -200.8855993639 H        -5466.3753 eV
Total Mermin free energy:         -200.8855993639 H        -5466.3753 eV
Force related energy:             -200.8855993639 H        -5466.3753 eV
Volume:                              0.269657E+05 au^3   0.399590E+04 A^3
Pressure:                            0.288831E-04 au     0.849770E+09 Pa
Maximal force component:             0.731819E-03

--------------------------------------------------------------------------------

***  Geometry step: 284


Total Energy:                     -200.8856019330 H        -5466.3754 eV
Extrapolated to 0:                -200.8856019330 H        -5466.3754 eV
Total Mermin free energy:         -200.8856019330 H        -5466.3754 eV
Force related energy:             -200.8856019330 H        -5466.3754 eV
Volume:                              0.269657E+05 au^3   0.399590E+04 A^3
Pressure:                            0.288608E-04 au     0.849114E+09 Pa
Maximal force component:             0.292357E-03

--------------------------------------------------------------------------------

***  Geometry step: 285


Total Energy:                     -200.8856057091 H        -5466.3755 eV
Extrapolated to 0:                -200.8856057091 H        -5466.3755 eV
Total Mermin free energy:         -200.8856057091 H        -5466.3755 eV
Force related energy:             -200.8856057091 H        -5466.3755 eV
Volume:                              0.269657E+05 au^3   0.399590E+04 A^3
Pressure:                            0.287540E-04 au     0.845973E+09 Pa
Maximal force component:             0.106826E-03

--------------------------------------------------------------------------------

***  Geometry step: 286


Total Energy:                     -200.8856033887 H        -5466.3754 eV
Extrapolated to 0:                -200.8856033887 H        -5466.3754 eV
Total Mermin free energy:         -200.8856033887 H        -5466.3754 eV
Force related energy:             -200.8856033887 H        -5466.3754 eV
Volume:                              0.269657E+05 au^3   0.399590E+04 A^3
Pressure:                            0.285820E-04 au     0.840912E+09 Pa
Maximal force component:             0.394268E-03

--------------------------------------------------------------------------------

***  Geometry step: 287


Total Energy:                     -200.8856061087 H        -5466.3755 eV
Extrapolated to 0:                -200.8856061087 H        -5466.3755 eV
Total Mermin free energy:         -200.8856061087 H        -5466.3755 eV
Force related energy:             -200.8856061087 H        -5466.3755 eV
Volume:                              0.269657E+05 au^3   0.399590E+04 A^3
Pressure:                            0.287063E-04 au     0.844567E+09 Pa
Maximal force component:             0.139952E-03

--------------------------------------------------------------------------------

***  Geometry step: 288


Total Energy:                     -200.8856114023 H        -5466.3756 eV
Extrapolated to 0:                -200.8856114023 H        -5466.3756 eV
Total Mermin free energy:         -200.8856114023 H        -5466.3756 eV
Force related energy:             -200.8856114023 H        -5466.3756 eV
Volume:                              0.269657E+05 au^3   0.399590E+04 A^3
Pressure:                            0.286486E-04 au     0.842871E+09 Pa
Maximal force component:             0.114250E-03

--------------------------------------------------------------------------------

***  Geometry step: 289


Total Energy:                     -200.8856087490 H        -5466.3755 eV
Extrapolated to 0:                -200.8856087490 H        -5466.3755 eV
Total Mermin free energy:         -200.8856087490 H        -5466.3755 eV
Force related energy:             -200.8856087490 H        -5466.3755 eV
Volume:                              0.269657E+05 au^3   0.399590E+04 A^3
Pressure:                            0.285558E-04 au     0.840142E+09 Pa
Maximal force component:             0.427520E-03

--------------------------------------------------------------------------------

***  Geometry step: 290


Total Energy:                     -200.8856120633 H        -5466.3756 eV
Extrapolated to 0:                -200.8856120633 H        -5466.3756 eV
Total Mermin free energy:         -200.8856120633 H        -5466.3756 eV
Force related energy:             -200.8856120633 H        -5466.3756 eV
Volume:                              0.269657E+05 au^3   0.399590E+04 A^3
Pressure:                            0.286199E-04 au     0.842027E+09 Pa
Maximal force component:             0.209608E-03

--------------------------------------------------------------------------------

***  Geometry step: 291


Total Energy:                     -200.8856146832 H        -5466.3757 eV
Extrapolated to 0:                -200.8856146832 H        -5466.3757 eV
Total Mermin free energy:         -200.8856146832 H        -5466.3757 eV
Force related energy:             -200.8856146832 H        -5466.3757 eV
Volume:                              0.269657E+05 au^3   0.399590E+04 A^3
Pressure:                            0.282119E-04 au     0.830024E+09 Pa
Maximal force component:             0.480069E-03

--------------------------------------------------------------------------------

***  Geometry step: 292


Total Energy:                     -200.8856158171 H        -5466.3757 eV
Extrapolated to 0:                -200.8856158171 H        -5466.3757 eV
Total Mermin free energy:         -200.8856158171 H        -5466.3757 eV
Force related energy:             -200.8856158171 H        -5466.3757 eV
Volume:                              0.269657E+05 au^3   0.399590E+04 A^3
Pressure:                            0.283561E-04 au     0.834266E+09 Pa
Maximal force component:             0.255765E-03

--------------------------------------------------------------------------------

***  Geometry step: 293


Total Energy:                     -200.8856200926 H        -5466.3758 eV
Extrapolated to 0:                -200.8856200926 H        -5466.3758 eV
Total Mermin free energy:         -200.8856200926 H        -5466.3758 eV
Force related energy:             -200.8856200926 H        -5466.3758 eV
Volume:                              0.269657E+05 au^3   0.399590E+04 A^3
Pressure:                            0.282651E-04 au     0.831587E+09 Pa
Maximal force component:             0.127385E-03

--------------------------------------------------------------------------------

***  Geometry step: 294


Total Energy:                     -200.8856139672 H        -5466.3757 eV
Extrapolated to 0:                -200.8856139672 H        -5466.3757 eV
Total Mermin free energy:         -200.8856139672 H        -5466.3757 eV
Force related energy:             -200.8856139672 H        -5466.3757 eV
Volume:                              0.269657E+05 au^3   0.399590E+04 A^3
Pressure:                            0.281191E-04 au     0.827291E+09 Pa
Maximal force component:             0.621229E-03

--------------------------------------------------------------------------------

***  Geometry step: 295


Total Energy:                     -200.8856202093 H        -5466.3759 eV
Extrapolated to 0:                -200.8856202093 H        -5466.3759 eV
Total Mermin free energy:         -200.8856202093 H        -5466.3759 eV
Force related energy:             -200.8856202093 H        -5466.3759 eV
Volume:                              0.269657E+05 au^3   0.399590E+04 A^3
Pressure:                            0.282474E-04 au     0.831068E+09 Pa
Maximal force component:             0.152523E-03

--------------------------------------------------------------------------------

***  Geometry step: 296


Total Energy:                     -200.8856229419 H        -5466.3759 eV
Extrapolated to 0:                -200.8856229419 H        -5466.3759 eV
Total Mermin free energy:         -200.8856229419 H        -5466.3759 eV
Force related energy:             -200.8856229419 H        -5466.3759 eV
Volume:                              0.269657E+05 au^3   0.399590E+04 A^3
Pressure:                            0.280477E-04 au     0.825192E+09 Pa
Maximal force component:             0.283649E-03

--------------------------------------------------------------------------------

***  Geometry step: 297


Total Energy:                     -200.8856233495 H        -5466.3759 eV
Extrapolated to 0:                -200.8856233495 H        -5466.3759 eV
Total Mermin free energy:         -200.8856233495 H        -5466.3759 eV
Force related energy:             -200.8856233495 H        -5466.3759 eV
Volume:                              0.269657E+05 au^3   0.399590E+04 A^3
Pressure:                            0.281005E-04 au     0.826745E+09 Pa
Maximal force component:             0.184418E-03

--------------------------------------------------------------------------------

***  Geometry step: 298


Total Energy:                     -200.8856244840 H        -5466.3760 eV
Extrapolated to 0:                -200.8856244840 H        -5466.3760 eV
Total Mermin free energy:         -200.8856244840 H        -5466.3760 eV
Force related energy:             -200.8856244840 H        -5466.3760 eV
Volume:                              0.269657E+05 au^3   0.399590E+04 A^3
Pressure:                            0.279739E-04 au     0.823019E+09 Pa
Maximal force component:             0.340298E-03

--------------------------------------------------------------------------------

***  Geometry step: 299


Total Energy:                     -200.8856251960 H        -5466.3760 eV
Extrapolated to 0:                -200.8856251960 H        -5466.3760 eV
Total Mermin free energy:         -200.8856251960 H        -5466.3760 eV
Force related energy:             -200.8856251960 H        -5466.3760 eV
Volume:                              0.269657E+05 au^3   0.399590E+04 A^3
Pressure:                            0.280222E-04 au     0.824442E+09 Pa
Maximal force component:             0.171619E-03

--------------------------------------------------------------------------------

***  Geometry step: 300


Total Energy:                     -200.8856269273 H        -5466.3760 eV
Extrapolated to 0:                -200.8856269273 H        -5466.3760 eV
Total Mermin free energy:         -200.8856269273 H        -5466.3760 eV
Force related energy:             -200.8856269273 H        -5466.3760 eV
Volume:                              0.269657E+05 au^3   0.399590E+04 A^3
Pressure:                            0.278396E-04 au     0.819068E+09 Pa
Maximal force component:             0.168859E-03

--------------------------------------------------------------------------------

***  Geometry step: 301


Total Energy:                     -200.8856269278 H        -5466.3760 eV
Extrapolated to 0:                -200.8856269278 H        -5466.3760 eV
Total Mermin free energy:         -200.8856269278 H        -5466.3760 eV
Force related energy:             -200.8856269278 H        -5466.3760 eV
Volume:                              0.269657E+05 au^3   0.399590E+04 A^3
Pressure:                            0.278426E-04 au     0.819157E+09 Pa
Maximal force component:             0.165083E-03

--------------------------------------------------------------------------------

***  Geometry step: 302


Total Energy:                     -200.8856287426 H        -5466.3761 eV
Extrapolated to 0:                -200.8856287426 H        -5466.3761 eV
Total Mermin free energy:         -200.8856287426 H        -5466.3761 eV
Force related energy:             -200.8856287426 H        -5466.3761 eV
Volume:                              0.269657E+05 au^3   0.399590E+04 A^3
Pressure:                            0.277524E-04 au     0.816504E+09 Pa
Maximal force component:             0.648632E-04

--------------------------------------------------------------------------------

***  Geometry step: 303


Total Energy:                     -200.8856252031 H        -5466.3760 eV
Extrapolated to 0:                -200.8856252031 H        -5466.3760 eV
Total Mermin free energy:         -200.8856252031 H        -5466.3760 eV
Force related energy:             -200.8856252031 H        -5466.3760 eV
Volume:                              0.269657E+05 au^3   0.399590E+04 A^3
Pressure:                            0.276072E-04 au     0.812232E+09 Pa
Maximal force component:             0.421525E-03

--------------------------------------------------------------------------------

***  Geometry step: 304


Total Energy:                     -200.8856287561 H        -5466.3761 eV
Extrapolated to 0:                -200.8856287561 H        -5466.3761 eV
Total Mermin free energy:         -200.8856287561 H        -5466.3761 eV
Force related energy:             -200.8856287561 H        -5466.3761 eV
Volume:                              0.269657E+05 au^3   0.399590E+04 A^3
Pressure:                            0.277440E-04 au     0.816256E+09 Pa
Maximal force component:             0.793707E-04

Geometry converged

--------------------------------------------------------------------------------
DFTB+ running times                          cpu [s]             wall clock [s]
--------------------------------------------------------------------------------
Pre-SCC initialisation                 +     5.14  (  3.3%)      1.30  (  3.7%)
SCC                                    +    68.03  ( 44.1%)     17.53  ( 50.3%)
Post-SCC processing                    +    81.18  ( 52.6%)     16.02  ( 46.0%)
--------------------------------------------------------------------------------
Missing                                +     0.00  (  0.0%)      0.00  (  0.0%)
Total                                  =   154.36  (100.0%)     34.85  (100.0%)
--------------------------------------------------------------------------------
