|===============================================================================
|
|  DFTB+ release 19.1
|
|  Copyright (C) 2006 - 2019  DFTB+ developers group
|
|===============================================================================
|
|  When publishing results obtained with DFTB+, please cite the following
|  reference:
|
|  * B. Aradi, B. Hourahine and T. Frauenheim,
|    DFTB+, a Sparse Matrix-Based Implementation of the DFTB Method,
|    J. Phys. Chem. A, 111 5678 (2007).  [doi: 10.1021/jp070186p]
|
|  You should also cite additional publications crediting the parametrization
|  data you use. Please consult the documentation of the SK-files for the
|  references.
|
|===============================================================================

Reading input file 'dftb_in.hsd'
Parser version: 7

--------------------------------------------------------------------------------
Reading SK-files:
Done.


Processed input in HSD format written to 'dftb_pin.hsd'

Starting initialization...
--------------------------------------------------------------------------------
OpenMP threads:              8
Chosen random seed:          28972869
Mode:                        Conjugate gradient relaxation
Self consistent charges:     No
Spin polarisation:           No
Nr. of up electrons:             2.000000
Nr. of down electrons:           2.000000
Periodic boundaries:         No
Electronic solver:           Relatively robust
Nr. of moved atoms:                       1
Max. nr. of geometry steps:            1000
Force tolerance:               0.100000E-03
Electronic temperature:        0.100000E-07 H      0.272114E-06 eV
Included shells:            Si:  s, p
Extra options:
                             Mulliken analysis
Force type                   original

--------------------------------------------------------------------------------

***  Geometry step: 0


Total Energy:                       -1.0920777201 H          -29.7169 eV
Extrapolated to 0:                  -1.0920777392 H          -29.7169 eV
Total Mermin free energy:           -1.0920777583 H          -29.7169 eV
Force related energy:               -1.0920777583 H          -29.7169 eV
Maximal force component:             0.000000E+00

Geometry converged

--------------------------------------------------------------------------------
DFTB+ running times                          cpu [s]             wall clock [s]
--------------------------------------------------------------------------------
Pre-SCC initialisation                 +     0.41  ( 80.5%)      0.06  ( 57.8%)
SCC                                    +     0.10  ( 19.3%)      0.04  ( 39.4%)
--------------------------------------------------------------------------------
Missing                                +     0.00  (  0.2%)      0.00  (  2.8%)
Total                                  =     0.51  (100.0%)      0.11  (100.0%)
--------------------------------------------------------------------------------
