|===============================================================================
|
|  DFTB+ release 19.1
|
|  Copyright (C) 2006 - 2019  DFTB+ developers group
|
|===============================================================================
|
|  When publishing results obtained with DFTB+, please cite the following
|  reference:
|
|  * B. Aradi, B. Hourahine and T. Frauenheim,
|    DFTB+, a Sparse Matrix-Based Implementation of the DFTB Method,
|    J. Phys. Chem. A, 111 5678 (2007).  [doi: 10.1021/jp070186p]
|
|  You should also cite additional publications crediting the parametrization
|  data you use. Please consult the documentation of the SK-files for the
|  references.
|
|===============================================================================

Reading input file 'dftb_in.hsd'
Parser version: 7

--------------------------------------------------------------------------------
Reading SK-files:
Done.
WARNING!
-> The following 2 node(s) have been ignored by the parser:
(1)
Path: dftbplusinput/Driver/ConjugateGradient/KeepStationary
Line: 6-6 (File: dftb_in.hsd)
(2)
Path: dftbplusinput/Hamiltonian/DFTB/MaxAngularMomentum/N
Line: 14-14 (File: dftb_in.hsd)



Processed input in HSD format written to 'dftb_pin.hsd'

Starting initialization...
--------------------------------------------------------------------------------
OpenMP threads:              8
Chosen random seed:          7957230
Mode:                        Conjugate gradient relaxation
Self consistent charges:     No
Spin polarisation:           No
Nr. of up electrons:             7.500000
Nr. of down electrons:           7.500000
Periodic boundaries:         No
Electronic solver:           Relatively robust
Nr. of moved atoms:                       5
Max. nr. of geometry steps:               0
Force tolerance:               0.100000E+11
Electronic temperature:        0.100000E-07 H      0.272114E-06 eV
Included shells:            Si:  s, p
                             H:  s, p
                            Ar:  s, p
Extra options:
                             Mulliken analysis
Force type                   original

--------------------------------------------------------------------------------

***  Geometry step: 0


Total Energy:                       -6.2725394383 H         -170.6845 eV
Extrapolated to 0:                  -6.2725394452 H         -170.6845 eV
Total Mermin free energy:           -6.2725394521 H         -170.6845 eV
Force related energy:               -6.2725394521 H         -170.6845 eV
Maximal force component:             0.127423E-01

Geometry converged

--------------------------------------------------------------------------------
DFTB+ running times                          cpu [s]             wall clock [s]
--------------------------------------------------------------------------------
Pre-SCC initialisation                 +     0.04  ( 38.8%)      0.01  ( 43.7%)
SCC                                    +     0.06  ( 55.9%)      0.01  ( 56.2%)
--------------------------------------------------------------------------------
Missing                                +     0.01  (  5.3%)      0.00  (  0.0%)
Total                                  =     0.10  (100.0%)      0.02  (100.0%)
--------------------------------------------------------------------------------
