81
Lattice="9.312844978309194 0.0 0.0 0.0 9.312844978309194 0.0 0.0 0.0 9.312844978309194" Properties=species:S:1:pos:R:3:forces:R:3:energies:R:1 energy=71.71319028943991 pbc="T T T"
O        0.00000000       0.00000000       0.11926200      -0.00000000      -0.00000000       8.11183591      -0.04479790
H        0.00000000       0.76323900       8.83579798       0.00000000       5.21893682      -4.05591796       1.35042099
H        0.00000000       8.54960598       8.83579798       0.00000000      -5.21893682      -4.05591796       1.35042099
O        0.00000000       0.00000000       3.22354366      -0.00000000       0.00000000       8.11183591      -0.04479790
H        0.00000000       0.76323900       2.62723466       0.00000000       5.21893682      -4.05591796       1.35042099
H        0.00000000       8.54960598       2.62723466       0.00000000      -5.21893682      -4.05591796       1.35042099
O        0.00000000       0.00000000       6.32782532      -0.00000000       0.00000000       8.11183591      -0.04479790
H        0.00000000       0.76323900       5.73151632       0.00000000       5.21893682      -4.05591796       1.35042099
H        0.00000000       8.54960598       5.73151632       0.00000000      -5.21893682      -4.05591796       1.35042099
O        0.00000000       3.10428166       0.11926200      -0.00000000       0.00000000       8.11183591      -0.04479790
H        0.00000000       3.86752066       8.83579798       0.00000000       5.21893682      -4.05591796       1.35042099
H        0.00000000       2.34104266       8.83579798       0.00000000      -5.21893682      -4.05591796       1.35042099
O        0.00000000       3.10428166       3.22354366      -0.00000000      -0.00000000       8.11183591      -0.04479790
H        0.00000000       3.86752066       2.62723466       0.00000000       5.21893682      -4.05591796       1.35042099
H        0.00000000       2.34104266       2.62723466       0.00000000      -5.21893682      -4.05591796       1.35042099
O        0.00000000       3.10428166       6.32782532      -0.00000000      -0.00000000       8.11183591      -0.04479790
H        0.00000000       3.86752066       5.73151632       0.00000000       5.21893682      -4.05591796       1.35042099
H        0.00000000       2.34104266       5.73151632       0.00000000      -5.21893682      -4.05591796       1.35042099
O        0.00000000       6.20856332       0.11926200      -0.00000000      -0.00000000       8.11183591      -0.04479790
H        0.00000000       6.97180232       8.83579798       0.00000000       5.21893682      -4.05591796       1.35042099
H        0.00000000       5.44532432       8.83579798       0.00000000      -5.21893682      -4.05591796       1.35042099
O        0.00000000       6.20856332       3.22354366      -0.00000000      -0.00000000       8.11183591      -0.04479790
H        0.00000000       6.97180232       2.62723466       0.00000000       5.21893682      -4.05591796       1.35042099
H        0.00000000       5.44532432       2.62723466       0.00000000      -5.21893682      -4.05591796       1.35042099
O        0.00000000       6.20856332       6.32782532      -0.00000000      -0.00000000       8.11183591      -0.04479790
H        0.00000000       6.97180232       5.73151632       0.00000000       5.21893682      -4.05591796       1.35042099
H        0.00000000       5.44532432       5.73151632       0.00000000      -5.21893682      -4.05591796       1.35042099
O        3.10428166       0.00000000       0.11926200      -0.00000000       0.00000000       8.11183591      -0.04479790
H        3.10428166       0.76323900       8.83579798       0.00000000       5.21893682      -4.05591796       1.35042099
H        3.10428166       8.54960598       8.83579798       0.00000000      -5.21893682      -4.05591796       1.35042099
O        3.10428166       0.00000000       3.22354366      -0.00000000      -0.00000000       8.11183591      -0.04479790
H        3.10428166       0.76323900       2.62723466      -0.00000000       5.21893682      -4.05591796       1.35042099
H        3.10428166       8.54960598       2.62723466      -0.00000000      -5.21893682      -4.05591796       1.35042099
O        3.10428166       0.00000000       6.32782532      -0.00000000      -0.00000000       8.11183591      -0.04479790
H        3.10428166       0.76323900       5.73151632       0.00000000       5.21893682      -4.05591796       1.35042099
H        3.10428166       8.54960598       5.73151632       0.00000000      -5.21893682      -4.05591796       1.35042099
O        3.10428166       3.10428166       0.11926200      -0.00000000      -0.00000000       8.11183591      -0.04479790
H        3.10428166       3.86752066       8.83579798      -0.00000000       5.21893682      -4.05591796       1.35042099
H        3.10428166       2.34104266       8.83579798      -0.00000000      -5.21893682      -4.05591796       1.35042099
O        3.10428166       3.10428166       3.22354366      -0.00000000      -0.00000000       8.11183591      -0.04479790
H        3.10428166       3.86752066       2.62723466      -0.00000000       5.21893682      -4.05591796       1.35042099
H        3.10428166       2.34104266       2.62723466       0.00000000      -5.21893682      -4.05591796       1.35042099
O        3.10428166       3.10428166       6.32782532       0.00000000      -0.00000000       8.11183591      -0.04479790
H        3.10428166       3.86752066       5.73151632      -0.00000000       5.21893682      -4.05591796       1.35042099
H        3.10428166       2.34104266       5.73151632       0.00000000      -5.21893682      -4.05591796       1.35042099
O        3.10428166       6.20856332       0.11926200      -0.00000000      -0.00000000       8.11183591      -0.04479790
H        3.10428166       6.97180232       8.83579798       0.00000000       5.21893682      -4.05591796       1.35042099
H        3.10428166       5.44532432       8.83579798       0.00000000      -5.21893682      -4.05591796       1.35042099
O        3.10428166       6.20856332       3.22354366       0.00000000      -0.00000000       8.11183591      -0.04479790
H        3.10428166       6.97180232       2.62723466       0.00000000       5.21893682      -4.05591796       1.35042099
H        3.10428166       5.44532432       2.62723466      -0.00000000      -5.21893682      -4.05591796       1.35042099
O        3.10428166       6.20856332       6.32782532       0.00000000      -0.00000000       8.11183591      -0.04479790
H        3.10428166       6.97180232       5.73151632      -0.00000000       5.21893682      -4.05591796       1.35042099
H        3.10428166       5.44532432       5.73151632       0.00000000      -5.21893682      -4.05591796       1.35042099
O        6.20856332       0.00000000       0.11926200       0.00000000      -0.00000000       8.11183591      -0.04479790
H        6.20856332       0.76323900       8.83579798      -0.00000000       5.21893682      -4.05591796       1.35042099
H        6.20856332       8.54960598       8.83579798      -0.00000000      -5.21893682      -4.05591796       1.35042099
O        6.20856332       0.00000000       3.22354366       0.00000000       0.00000000       8.11183591      -0.04479790
H        6.20856332       0.76323900       2.62723466      -0.00000000       5.21893682      -4.05591796       1.35042099
H        6.20856332       8.54960598       2.62723466      -0.00000000      -5.21893682      -4.05591796       1.35042099
O        6.20856332       0.00000000       6.32782532       0.00000000      -0.00000000       8.11183591      -0.04479790
H        6.20856332       0.76323900       5.73151632      -0.00000000       5.21893682      -4.05591796       1.35042099
H        6.20856332       8.54960598       5.73151632      -0.00000000      -5.21893682      -4.05591796       1.35042099
O        6.20856332       3.10428166       0.11926200       0.00000000      -0.00000000       8.11183591      -0.04479790
H        6.20856332       3.86752066       8.83579798      -0.00000000       5.21893682      -4.05591796       1.35042099
H        6.20856332       2.34104266       8.83579798      -0.00000000      -5.21893682      -4.05591796       1.35042099
O        6.20856332       3.10428166       3.22354366       0.00000000      -0.00000000       8.11183591      -0.04479790
H        6.20856332       3.86752066       2.62723466      -0.00000000       5.21893682      -4.05591796       1.35042099
H        6.20856332       2.34104266       2.62723466       0.00000000      -5.21893682      -4.05591796       1.35042099
O        6.20856332       3.10428166       6.32782532       0.00000000      -0.00000000       8.11183591      -0.04479790
H        6.20856332       3.86752066       5.73151632      -0.00000000       5.21893682      -4.05591796       1.35042099
H        6.20856332       2.34104266       5.73151632      -0.00000000      -5.21893682      -4.05591796       1.35042099
O        6.20856332       6.20856332       0.11926200       0.00000000      -0.00000000       8.11183591      -0.04479790
H        6.20856332       6.97180232       8.83579798      -0.00000000       5.21893682      -4.05591796       1.35042099
H        6.20856332       5.44532432       8.83579798      -0.00000000      -5.21893682      -4.05591796       1.35042099
O        6.20856332       6.20856332       3.22354366       0.00000000      -0.00000000       8.11183591      -0.04479790
H        6.20856332       6.97180232       2.62723466      -0.00000000       5.21893682      -4.05591796       1.35042099
H        6.20856332       5.44532432       2.62723466      -0.00000000      -5.21893682      -4.05591796       1.35042099
O        6.20856332       6.20856332       6.32782532       0.00000000      -0.00000000       8.11183591      -0.04479790
H        6.20856332       6.97180232       5.73151632      -0.00000000       5.21893682      -4.05591796       1.35042099
H        6.20856332       5.44532432       5.73151632      -0.00000000      -5.21893682      -4.05591796       1.35042099
81
Lattice="9.312844978309194 0.0 0.0 0.0 9.312844978309194 0.0 0.0 0.0 9.312844978309194" Properties=species:S:1:pos:R:3:forces:R:3:energies:R:1 energy=53.43733827099221 pbc="T T T"
O        9.31254721       9.31255691       0.13890618      -0.00050839       0.02197547      -2.00170801       1.11050463
H        0.00095973       0.90807789       8.68138633      -0.00140057      -1.38957110       1.00764197       0.43129081
H        9.31095933       8.40905122       8.68266784       0.00151069       1.36969274       0.99413297       0.43595184
O        0.00009991       0.00033675       3.24293382      -0.00141427      -0.00012982      -2.00499282       1.11191375
H        0.00049332       0.90657431       2.47314237      -0.00045617      -1.38586692       1.00566932       0.43315643
H        9.31134253       8.40510117       2.47543148       0.00194729       1.38579092       1.00049518       0.43345239
O        0.00016998       0.00022653       6.34724522       0.00285121      -0.01249096      -2.01441073       1.11291884
H        0.00292142       0.90498325       5.57724543      -0.00322986      -1.37996289       1.00207361       0.43432813
H        9.31239654       8.40599710       5.57639611       0.00069024       1.39300796       1.01185278       0.43172062
O        9.31280902       3.10457571       0.13900106      -0.00470108      -0.01458081      -2.02432457       1.11567908
H        9.31075642       4.00834665       8.68030353       0.00234752      -1.38238183       1.00869662       0.43400326
H        9.31175698       2.19616974       8.68129376       0.00106713       1.39793096       1.01469058       0.43111925
O        9.31262889       3.10419345       3.24202390       0.00206171       0.01429380      -1.99246365       1.10807902
H        0.00112178       4.01134754       2.47238027      -0.00144781      -1.38112328       1.00028579       0.43266350
H        9.31276906       2.20014064       2.47279750      -0.00023807       1.36760935       0.99126627       0.43552107
O        9.31249287       3.10398648       6.34727864       0.00142841       0.00174061      -2.00582928       1.11139896
H        0.00035365       4.01039180       5.57749297      -0.00111288      -1.38521028       1.00433528       0.43308127
H        0.00003130       2.19795429       5.57782598      -0.00090961       1.38250421       1.00261932       0.43360652
O        9.31239546       6.20899270       0.13861169       0.00422517      -0.01252107      -2.00405512       1.11029540
H        0.00220480       7.11345471       8.68172051      -0.00290305      -1.37640687       0.99962951       0.43456230
H        0.00036327       5.30125370       8.68232764      -0.00069302       1.38605424       1.00559880       0.43233919
O        0.00028715       6.20902589       3.24290552      -0.00265846      -0.00556868      -2.01476929       1.11330779
H        9.31247242       7.11366222       2.47138759       0.00100719      -1.38406270       1.00650969       0.43339521
H        9.31181564       5.30195600       2.47314921       0.00143511       1.38863851       1.00695463       0.43265370
O        0.00024548       6.20845494       6.34686887       0.00246184      -0.00304999      -1.98002649       1.10563197
H        0.00076089       7.11418290       5.57867071      -0.00046872      -1.36724248       0.98848927       0.43494566
H        0.00167922       5.30255906       5.57810423      -0.00166858       1.37093711       0.99163645       0.43431599
O        3.10385399       0.00030530       0.13913278       0.00218700       0.00321571      -1.99828342       1.10982411
H        3.10420838       0.90533753       8.68069856      -0.00044034      -1.38056383       1.00383824       0.43315555
H        3.10512239       8.40630519       8.68418843      -0.00160169       1.37674844       0.99530199       0.43429390
O        3.10413484       9.31229427       3.24306429       0.00039185       0.01041633      -2.02602559       1.11656503
H        3.10331217       0.90733263       2.47234184       0.00107293      -1.39888485       1.01612355       0.43133593
H        3.10536304       8.40659464       2.47293805      -0.00150640       1.38984244       1.00969240       0.43345014
O        3.10409352       9.31264549       6.34709765       0.00248521       0.01298890      -2.01106818       1.11355749
H        3.10531707       0.90828375       5.57779763      -0.00152156      -1.39408130       1.00884635       0.43189358
H        3.10488728       8.40745261       5.57734542      -0.00075662       1.37970477       1.00151325       0.43432842
O        3.10460465       3.10401789       0.13902947      -0.00017761       0.00532978      -2.00115842       1.11076368
H        3.10473707       4.01071976       8.68229200       0.00008397      -1.38549055       1.00405142       0.43294956
H        3.10413763       2.19759184       8.68339490       0.00060068       1.37942628       0.99841568       0.43409491
O        3.10442555       3.10436549       3.24287655      -0.00101182       0.00488744      -2.02745546       1.11779660
H        3.10439799       4.01200946       2.47232043       0.00028863      -1.39966423       1.01632985       0.43168555
H        3.10364001       2.19697421       2.47359406       0.00109316       1.39385800       1.01061865       0.43285981
O        3.10467409       3.10382821       6.34752722       0.00105252       0.00069904      -2.01106479       1.11246498
H        3.10542563       4.00958529       5.57750536      -0.00061286      -1.38418333       1.00563773       0.43335029
H        3.10457497       2.19782320       5.57688109       0.00002782       1.38464351       1.00473235       0.43302697
O        3.10391322       6.20848176       0.13897681      -0.00003125       0.01530194      -2.00861743       1.11169972
H        3.10472923       7.11499539       8.68012503      -0.00116218      -1.39054110       1.01150581       0.43160889
H        3.10289949       5.30335504       8.68309838       0.00108183       1.37626126       0.99655519       0.43500432
O        3.10393274       6.20857521       3.24299475      -0.00161048      -0.00473589      -2.00274113       1.11114348
H        3.10438193       7.11399741       2.47339265      -0.00076180      -1.37890193       1.00027441       0.43408776
H        3.10250995       5.30173372       2.47324749       0.00160785       1.38340028       1.00262439       0.43296547
O        3.10428602       6.20840788       6.34758674      -0.00322833       0.01552241      -2.01755072       1.11421771
H        3.10295118       7.11645236       5.57703043       0.00147784      -1.39710793       1.01472690       0.43120281
H        3.10278240       5.30304933       5.57843961       0.00159092       1.38191640       1.00308199       0.43440230
O        6.20833666       9.31251021       0.13840210       0.00098208       0.01568759      -2.01468650       1.11371778
H        6.20850905       0.90708690       8.67978406      -0.00045487      -1.39256765       1.01340513       0.43125507
H        6.20881465       8.40739568       8.68218764      -0.00058046       1.37907808       1.00091290       0.43473176
O        6.20880736       9.31261397       3.24300546      -0.00055725       0.01222486      -2.00833321       1.11184608
H        6.20773914       0.90635186       2.47196694       0.00142503      -1.38725108       1.00950810       0.43205021
H        6.20947950       8.40763766       2.47343430      -0.00093832       1.37631541       0.99857046       0.43458707
O        6.20876683       0.00066553       6.34709568       0.00056401      -0.01868908      -2.01250711       1.11276339
H        6.20905071       0.90419263       5.57674638      -0.00050532      -1.37823262       1.00150076       0.43496400
H        6.20888511       8.40511849       5.57674409      -0.00010423       1.39325297       1.01093898       0.43123136
O        6.20898929       3.10411392       0.13871289       0.00202258      -0.00128772      -2.04992176       1.12336028
H        6.20909656       4.01211684       8.68077870      -0.00006622      -1.40807711       1.02422141       0.43128980
H        6.21020525       2.19582383       8.68086559      -0.00138846       1.40825990       1.02484974       0.43111894
O        6.20879639       3.10476111       3.24288265      -0.00195393      -0.01505636      -1.99473157       1.10879014
H        6.20847970       4.00953482       2.47432666       0.00046386      -1.37163833       0.99137712       0.43543855
H        6.20777298       2.19747554       2.47318025       0.00135778       1.38181195       1.00282204       0.43245965
O        6.20827298       3.10410280       6.34673696      -0.00028210       0.01821569      -1.98823398       1.10797333
H        6.20657938       4.01189844       5.57690059       0.00201446      -1.38301006       1.00165475       0.43212103
H        6.20987268       2.19952382       5.57912395      -0.00200061       1.36738083       0.98842041       0.43616766
O        6.20852680       6.20888940       0.13895333       0.00037960      -0.00546213      -2.03182062       1.11774845
H        6.20849160       7.11428157       8.68037652      -0.00000532      -1.39383781       1.01587114       0.43268070
H        6.20873860       5.30088128       8.68151887      -0.00032586       1.39821783       1.01548917       0.43163109
O        6.20928293       6.20864511       3.24320496      -0.00051051       0.01247534      -2.01432029       1.11383851
H        6.20981947       7.11612671       2.47256579      -0.00067285      -1.39483503       1.01321679       0.43159136
H        6.20808428       5.30258008       2.47450358       0.00154680       1.38582496       1.00231400       0.43417727
O        6.20827215       6.20828921       6.34703623      -0.00018953       0.00227624      -2.03899187       1.12082076
H        6.20853130       7.11647466       5.57684075      -0.00039351      -1.40345828       1.01932190       0.43157115
H        6.20819912       5.30100114       5.57619231       0.00033086       1.40236742       1.01924900       0.43184732
81
Lattice="9.312844978309194 0.0 0.0 0.0 9.312844978309194 0.0 0.0 0.0 9.312844978309194" Properties=species:S:1:pos:R:3:forces:R:3:energies:R:1 energy=70.41525792453699 pbc="T T T"
O        9.31156296       9.31243133       0.15760460       0.00349577       0.04080284      -4.01527841       1.78934015
H        0.00433178       0.93651593       8.54832415      -0.01422676      -1.85262211       2.01920123       0.40399163
H        9.30752414       8.37050321       8.53311722       0.01175440       1.76030500       1.99678194       0.40992633
O        0.00051046       0.00082382       3.26086509      -0.00719131      -0.00810726      -3.99895318       1.79664522
H        0.00278223       0.94111659       2.33039445      -0.00627170      -1.79887214       2.00942743       0.40726774
H        9.30757316       8.36561349       2.33726470       0.01386296       1.80870467       1.98884460       0.40735342
O        0.00048206       0.00033721       6.36498650       0.02314127      -0.01579149      -4.03897800       1.79360721
H        0.01227949       0.94002329       5.43044892      -0.02962898      -1.79552247       2.01500856       0.40889517
H        9.31190811       8.37581088       5.43600105       0.00461020       1.82334906       2.02134254       0.40622646
O        9.31278175       3.10454063       0.15684106      -0.02052264      -0.02670110      -4.04787592       1.79323785
H        9.30637666       4.04187455       8.52965556       0.01674794      -1.79341290       2.02792479       0.41068894
H        9.31018950       2.16657058       8.54429906       0.00708123       1.85201164       2.02302789       0.40534435
O        9.31222196       3.10390655       3.25864307       0.01102259       0.01749650      -4.01186906       1.78951210
H        0.00539213       4.04366237       2.33404329      -0.01579863      -1.82648052       2.00580294       0.40507627
H        9.31137365       2.16377219       2.32477876       0.00305659       1.78689570       2.00472227       0.40829207
O        9.31264696       3.10402341       6.36595352      -0.00004454       0.00256237      -4.02610757       1.79023291
H        9.31280387       4.04222330       5.43523281       0.00028636      -1.81318794       2.01494876       0.40684233
H        9.31207799       2.16604868       5.43413538       0.00419757       1.79744880       2.01455196       0.40721346
O        9.31201192       6.20913101       0.15689346       0.02410098      -0.02164028      -4.02256930       1.79258209
H        0.00562747       7.15134671       8.53717040      -0.01692730      -1.77246029       1.99746384       0.40820231
H        0.00428061       5.27196229       8.54156068      -0.01383113       1.81339154       2.02193665       0.40617396
O        0.00089731       6.20955531       3.26058765      -0.01862191      -0.02291090      -4.02169177       1.79306169
H        9.31134908       7.14538863       2.32364794       0.00431553      -1.78287082       2.01462918       0.40749429
H        9.30766104       5.26797703       2.33426416       0.01586841       1.82718119       2.00671470       0.40627063
O        0.00100567       6.20845849       6.36415042       0.01202410      -0.00264632      -4.01098904       1.78444788
H        0.00405620       7.14738844       5.43445193      -0.00786617      -1.81249451       2.01032018       0.40710769
H        0.00278304       5.26787486       5.43831828      -0.00451343       1.81534572       2.00178320       0.40598020
O        3.10346859       0.00201705       0.15760418       0.01286354      -0.02007104      -4.02096139       1.79257759
H        3.10578629       0.93628737       8.53533557      -0.00635585      -1.79422742       2.02277179       0.40689175
H        3.10676544       8.36892911       8.54581869      -0.00766233       1.82518128       1.99936779       0.40752833
O        3.10395810       0.00000378       3.26105595       0.00634564       0.00698198      -4.00512593       1.79631078
H        3.10244808       0.93973141       2.33267336       0.00306265      -1.81058953       2.01062663       0.40627938
H        3.10875317       8.36789659       2.33175512      -0.01134719       1.79180241       1.99412880       0.40793003
O        3.10325028       9.31278087       6.36478428       0.02319456       0.01105133      -4.02130026       1.79437188
H        3.10887429       0.94197659       5.43874371      -0.01317972      -1.81709352       2.00287993       0.40608747
H        3.10858460       8.37400054       5.43051828      -0.01410247       1.80533379       2.01863409       0.40848309
O        3.10518826       3.10346133       0.15771378      -0.00870072      -0.00211311      -4.01925421       1.79589022
H        3.10616526       4.04318561       8.54077945      -0.00419515      -1.80234470       2.01142408       0.40680778
H        3.10016268       2.16094011       8.54054467       0.01256950       1.80636018       2.00775027       0.40808223
O        3.10462382       3.10485752       3.26023675      -0.00780575       0.00605727      -4.01958471       1.79515479
H        3.10537474       4.04483135       2.33095604      -0.00408745      -1.81693015       2.01385183       0.40696027
H        3.10034122       2.16257475       2.33017298       0.01012060       1.80681589       2.00578027       0.40779166
O        3.10471866       3.10315096       6.36613715       0.00757056      -0.00238516      -4.02461279       1.79518905
H        3.10625963       4.04253974       5.43298606      -0.00474724      -1.79205698       2.01342018       0.40796269
H        3.10621473       2.16396706       5.43612348      -0.00281864       1.81113315       2.01138834       0.40646252
O        3.10349454       6.20997961       0.15759202      -0.00723345       0.00162174      -4.02260420       1.79140288
H        3.10556673       7.14345335       8.53896206      -0.00460197      -1.81234716       2.02484843       0.40541727
H        3.09802230       5.26576401       8.54010495       0.01420125       1.79744658       1.99959570       0.40862587
O        3.10352301       6.20799746       3.26094335      -0.01410035      -0.01321050      -4.01281521       1.79312663
H        3.10648576       7.15004080       2.33010906      -0.00638133      -1.78601774       1.99608612       0.40726007
H        3.09485674       5.27020608       2.33109552       0.02196565       1.81375598       2.01592371       0.40634034
O        3.10396689       6.20877641       6.36493399      -0.01951147       0.01219322      -4.01947345       1.79287957
H        3.09855195       7.14802765       5.43858110       0.01431305      -1.81762371       2.01196596       0.40576709
H        3.10047802       5.26622494       5.43292983       0.00903241       1.79145571       2.00500322       0.40880881
O        6.20787269       0.00007861       0.15557876       0.00629924       0.01009299      -4.01723086       1.79490884
H        6.20557683       0.93476659       8.53813264       0.00665696      -1.81967176       2.02638808       0.40564331
H        6.21297549       8.36641053       8.53825928      -0.01336744       1.77941818       1.98894386       0.40876422
O        6.20943985       9.31278787       3.26072701      -0.00600529       0.01454960      -4.03063538       1.79077712
H        6.20627126       0.93588470       2.33117187       0.00770393      -1.83119796       2.02612393       0.40618824
H        6.20958042       8.37157892       2.32834833      -0.00014379       1.80196830       2.00776127       0.40841683
O        6.20900242       0.00075985       6.36520094       0.00916448      -0.03297009      -4.01457532       1.79581988
H        6.21296181       0.94168815       5.42774600      -0.00936879      -1.75942191       2.00110124       0.40923418
H        6.20912096       8.37440167       5.44044753      -0.00019233       1.82983383       2.01322116       0.40494823
O        6.20950528       3.10365635       0.15622174       0.00422980      -0.01670947      -4.01551425       1.80103562
H        6.20936243       4.04823048       8.53866900       0.00112793      -1.79225814       1.99746825       0.40793904
H        6.21148618       2.16197207       8.54055183      -0.00584851       1.82906795       2.01963125       0.40768433
O        6.20919495       3.10479220       3.26103957      -0.00285041      -0.03182168      -4.02191915       1.78941778
H        6.20834829       4.04405686       2.32576381       0.00147097      -1.77220138       2.00402774       0.40830215
H        6.20871709       2.16611238       2.33599226       0.00062500       1.83736104       2.01674466       0.40556023
O        6.20672784       3.10417873       6.36504494       0.00253075       0.02994140      -4.01256367       1.78981523
H        6.20392653       4.03802553       5.43864090       0.00727555      -1.83428523       2.02681892       0.40448839
H        6.21125474       2.15853450       5.43231628      -0.00968803       1.76112568       1.98362584       0.40921400
O        6.20885106       6.20885238       0.15754461       0.00074466      -0.01476024      -4.01393109       1.80529051
H        6.20461984       7.14860200       8.53417577       0.01152722      -1.77911101       2.01518479       0.40858940
H        6.21295437       5.26388560       8.54349161      -0.01015579       1.80303757       1.99895844       0.40678229
O        6.21074993       6.20959610       3.26121945      -0.00894884       0.00949456      -4.01926830       1.79666501
H        6.21064081       7.14698088       2.33245987      -0.00011673      -1.81349889       2.01769269       0.40574253
H        6.20622133       5.26479430       2.32962133       0.01067050       1.78532358       1.99843703       0.40908816
O        6.20747724       6.20729081       6.36433390       0.00241836       0.00050044      -4.02659447       1.79246525