|===============================================================================
|
|  DFTB+ release 19.1
|
|  Copyright (C) 2006 - 2019  DFTB+ developers group
|
|===============================================================================
|
|  When publishing results obtained with DFTB+, please cite the following
|  reference:
|
|  * B. Aradi, B. Hourahine and T. Frauenheim,
|    DFTB+, a Sparse Matrix-Based Implementation of the DFTB Method,
|    J. Phys. Chem. A, 111 5678 (2007).  [doi: 10.1021/jp070186p]
|
|  You should also cite additional publications crediting the parametrization
|  data you use. Please consult the documentation of the SK-files for the
|  references.
|
|===============================================================================

Reading input file 'dftb_in.hsd'
Parser version: 7

--------------------------------------------------------------------------------
***  Converting input from version  4 to version  7 ...
WARNING!
-> Adding legacy step size for finite difference differentiation
Path: dftbplusinput/hamiltonian/DFTB/Differentiation

***  Done.

Reading SK-files:
Done.
WARNING!
-> The following 1 node(s) have been ignored by the parser:
(1)
Path: dftbplusinput/hamiltonian/DFTB/polynomialrepulsive/siar
Line: 16-16 (File: dftb_in.hsd)

ERROR!
-> Code halting due to the presence of errors in dftb_in file.
